 Gaussian 09, Revision D.01,
 Gaussian 09:  ES64L-G09RevD.01 24-Apr-2013

 ----------------------------------------------------------------------
 #P guess=read b2plypd3/def2tzvp freq IOp(7/33=1) scf=(tight, direct) i
 ntegral=(grid=ultrafine, Acc2E=12) IOp(2/9=2000) scf=xqc
 ----------------------------------------------------------------------

 ------------------
 1-Propene-1,2-diol
 ------------------
 Symbolic Z-matrix:
 Charge =  0 Multiplicity = 1

                         Standard orientation:
 ---------------------------------------------------------------------
 Center     Atomic      Atomic             Coordinates (Angstroms)
 Number     Number       Type             X           Y           Z
 ---------------------------------------------------------------------
      1          6           0       -1.812422   -0.548905   -0.000157
      2          6           0       -0.432542    0.002149    0.010084
      3          8           0       -0.390658    1.366596    0.013053
      4          6           0        0.683109   -0.729018    0.001302
      5          8           0        1.907659   -0.072873   -0.086523
      6          1           0       -2.348242   -0.220833   -0.892578
      7          1           0       -2.368586   -0.191619    0.868058
      8          1           0       -1.793439   -1.636916    0.016595
      9          1           0        0.544564    1.619078    0.005801
     10          1           0        0.681583   -1.808545   -0.027603
     11          1           0        2.519246   -0.456309    0.550112
 ---------------------------------------------------------------------

 SCF Done:  E(RB2PLYPD3) =  -267.943842018     A.U. after    1 cycles
 E2(B2PLYPD3) =    -0.3128109556D+00 E(B2PLYPD3) =    -0.26825665297327D+03
 E2(B2PLYPD3) =    -0.3128109556D+00 E(B2PLYPD3) =    -0.26825665297327D+03

 The electronic state is 1-A.
 Alpha  occ. eigenvalues --  -19.74985 -19.74320 -10.66975 -10.64865 -10.61161
 Alpha  occ. eigenvalues --   -1.20533  -1.17618  -0.89070  -0.79621  -0.66872
 Alpha  occ. eigenvalues --   -0.61392  -0.59911  -0.51719  -0.49681  -0.46685
 Alpha  occ. eigenvalues --   -0.46302  -0.44215  -0.43061  -0.40577  -0.25942
 Alpha virt. eigenvalues --    0.06552   0.09287   0.10109   0.12165   0.13579
 Alpha virt. eigenvalues --    0.17371   0.17595   0.19893   0.21746   0.24299
 Alpha virt. eigenvalues --    0.25825   0.29413   0.30253   0.32175   0.33614

 Mulliken charges:
               1
     1  C   -0.312700
     2  C    0.214140
     3  O   -0.470190
     4  C   -0.049888
     5  O   -0.506965
     6  H    0.119921
     7  H    0.118952
     8  H    0.110735
     9  H    0.337987
    10  H    0.105827
    11  H    0.332182
 Sum of Mulliken charges =  -0.00000

 Dipole moment (field-independent basis, Debye):
    X=              0.8789    Y=             -1.6077    Z=              1.0355  Tot=              2.1046
 Quadrupole moment (field-independent basis, Debye-Ang):
   XX=            -26.5078   YY=            -29.4292   ZZ=            -31.5422
   XY=              0.6688   XZ=              3.2083   YZ=             -0.5229

  Exact polarizability:  58.302  -4.021  45.398   1.085  -0.316  32.899
 Approx polarizability:  60.257  -7.098  51.154   1.067  -0.653  39.681

                      1                      2                      3
                      A                      A                      A
 Frequencies --    199.9206               238.3411               268.0666
 Red. masses --      1.1711                 1.4469                 2.1523
 Frc consts  --      0.0276                 0.0484                 0.0911
 IR Inten    --      3.2769                59.6242                79.2498

                      4                      5                      6
                      A                      A                      A
 Frequencies --    281.8911               388.8337               524.9418
 Red. masses --      2.6468                 2.9920                 1.2098
 Frc consts  --      0.1239                 0.2665                 0.1964
 IR Inten    --      9.2850                 6.1186               105.6296

                      7                      8                      9
                      A                      A                      A
 Frequencies --    588.7520               621.0007               744.3595
 Red. masses --      2.8182                 4.4200                 1.2296
 Frc consts  --      0.5755                 1.0043                 0.4014
 IR Inten    --     35.6102                20.9016                24.4955

                     10                     11                     12
                      A                      A                      A
 Frequencies --    910.1542              1012.3369              1074.9528
 Red. masses --      4.1347                 1.5576                 1.4973
 Frc consts  --      2.0180                 0.9405                 1.0194
 IR Inten    --     20.1575                12.4775                 4.2110

                     13                     14                     15
                      A                      A                      A
 Frequencies --   1119.4731              1198.9606              1224.9523
 Red. masses --      3.7849                 1.4650                 1.3248
 Frc consts  --      2.7947                 1.2408                 1.1712
 IR Inten    --    103.1521               116.2013                96.6382

                     16                     17                     18
                      A                      A                      A
 Frequencies --   1373.6308              1389.9455              1444.2610
 Red. masses --      1.3903                 1.5722                 1.6433
 Frc consts  --      1.5456                 1.7895                 2.0196
 IR Inten    --     97.8490                 0.1837                 7.2207

                     19                     20                     21
                      A                      A                      A
 Frequencies --   1482.9130              1505.1582              1766.6795
 Red. masses --      1.0422                 1.0627                 6.0725
 Frc consts  --      1.3503                 1.4184                11.1669
 IR Inten    --      7.5958                 4.3318                43.9325

                     22                     23                     24
                      A                      A                      A
 Frequencies --   3053.9412              3111.0345              3148.1162
 Red. masses --      1.0362                 1.1008                 1.1005
 Frc consts  --      5.6941                 6.2771                 6.4262
 IR Inten    --     22.7297                12.1420                14.5229

                     25                     26                     27
                      A                      A                      A
 Frequencies --   3222.7840              3738.1856              3817.0101
 Red. masses --      1.0932                 1.0643                 1.0666
 Frc consts  --      6.6901                 8.7625                 9.1557
 IR Inten    --     10.6277                57.1627                70.0367

 - Thermochemistry -
 -------------------
 Temperature   298.150 Kelvin.  Pressure   1.00000 Atm.
 Atom     1 has atomic number  6 and mass  12.00000

 Molecular mass:    74.03678 amu.
 Principal axes and moments of inertia in atomic units:
                           1         2         3
     Eigenvalues --   181.00453 469.56679 636.47590
           X            0.99947   0.03082   0.01051
           Y           -0.03078   0.99952  -0.00382
           Z           -0.01063   0.00350   0.99994
 This molecule is an asymmetric top.
 Rotational symmetry number  1.
 Rotational temperatures (Kelvin)      0.47852     0.18445     0.13608
 Rotational constants (GHZ):           9.97070     3.84342     2.83552
 Zero-point vibrational energy     235967.0 (Joules/Mol)
                                   56.39746 (Kcal/Mol)
 Warning -- explicit consideration of   7 degrees of freedom as
           vibrations may cause significant error
 Vibrational temperatures:    287.64   342.92   385.69   405.58   559.44
          (Kelvin)            755.27   847.08   893.48  1070.97  1309.51
                             1456.53  1546.62  1610.67  1725.03  1762.43
                             1976.35  1999.82  2077.97  2133.58  2165.58
                             2541.85  4393.93  4476.08  4529.43  4636.86
                             5378.41  5491.82

 Zero-point correction=                           0.089875 (Hartree/Particle)
 Thermal correction to Energy=                    0.095818
 Thermal correction to Enthalpy=                  0.096762
 Thermal correction to Gibbs Free Energy=         0.061292
 Sum of electronic and zero-point Energies=           -268.166778
 Sum of electronic and thermal Energies=              -268.160835
 Sum of electronic and thermal Enthalpies=            -268.159891
 Sum of electronic and thermal Free Energies=         -268.195361

                     E (Thermal)             CV                S
                      KCal/Mol        Cal/Mol-Kelvin    Cal/Mol-Kelvin
 Total                   60.127             20.811             74.653
 Electronic               0.000              0.000              0.000
 Translational            0.889              2.981             38.822
 Rotational               0.889              2.981             25.495
 Vibrational             58.349             14.849             10.335
 Vibration     1          0.638              1.840              2.134
 Vibration     2          0.656              1.782              1.815
 Vibration     3          0.673              1.732              1.609
 Vibration     4          0.681              1.707              1.522
 Vibration     5          0.757              1.494              1.005
 Vibration     6          0.880              1.195              0.599
 Vibration     7          0.946              1.056              0.469

 Optimization completed.
    -- Stationary point found.
 Normal termination of Gaussian 09 at Sun Oct 23 08:14:17 2022.
