 Gaussian 09, Revision D.01,
 Gaussian 09:  ES64L-G09RevD.01 24-Apr-2013

 ----------------------------------------------------------------------
 #P opt=(modredundant, calcfc, noeigentest, maxStep=5) scf=(tight, dire
 ct) integral=(grid=ultrafine, Acc2E=12) guess=read b2plypd3/def2tzvp I
 Op(2/9=2000) scf=xqc
 ----------------------------------------------------------------------

 ------------------
 1-Propene-1,2-diol
 ------------------
 Symbolic Z-matrix:
 Charge =  0 Multiplicity = 1

 SCF Done:  E(RB2PLYPD3) =  -267.943842018     A.U. after    1 cycles
 E2(B2PLYPD3) =    -0.3128109556D+00 E(B2PLYPD3) =    -0.26825665297326D+03
 E2(B2PLYPD3) =    -0.3128109556D+00 E(B2PLYPD3) =    -0.26825665297326D+03

  Exact polarizability:  58.302  -4.021  45.398   1.085  -0.316  32.899
 Approx polarizability:  60.257  -7.098  51.154   1.067  -0.653  39.681

 Optimization completed.
    -- Stationary point found.
 SCF Done:  E(RB2PLYPD3) =  -267.943056693     A.U. after   10 cycles
 E2(B2PLYPD3) =    -0.3128787877D+00 E(B2PLYPD3) =    -0.26825593548030D+03
 SCF Done:  E(RB2PLYPD3) =  -267.943547853     A.U. after   10 cycles
 E2(B2PLYPD3) =    -0.3128481546D+00 E(B2PLYPD3) =    -0.26825639600717D+03
 SCF Done:  E(RB2PLYPD3) =  -267.943655129     A.U. after   10 cycles
 E2(B2PLYPD3) =    -0.3128332569D+00 E(B2PLYPD3) =    -0.26825648838629D+03
 Optimization completed.
 SCF Done:  E(RB2PLYPD3) =  -267.942539330     A.U. after   10 cycles
 E2(B2PLYPD3) =    -0.3129136010D+00 E(B2PLYPD3) =    -0.26825545293154D+03
 SCF Done:  E(RB2PLYPD3) =  -267.943130660     A.U. after   11 cycles
 E2(B2PLYPD3) =    -0.3128827210D+00 E(B2PLYPD3) =    -0.26825601338147D+03
 SCF Done:  E(RB2PLYPD3) =  -267.943138979     A.U. after    8 cycles
 E2(B2PLYPD3) =    -0.3128770539D+00 E(B2PLYPD3) =    -0.26825601603256D+03
 SCF Done:  E(RB2PLYPD3) =  -267.941748254     A.U. after   11 cycles
 E2(B2PLYPD3) =    -0.3129624053D+00 E(B2PLYPD3) =    -0.26825471065938D+03
 SCF Done:  E(RB2PLYPD3) =  -267.942363720     A.U. after   11 cycles
 E2(B2PLYPD3) =    -0.3129333782D+00 E(B2PLYPD3) =    -0.26825529709772D+03
 SCF Done:  E(RB2PLYPD3) =  -267.942370686     A.U. after    8 cycles
 E2(B2PLYPD3) =    -0.3129300027D+00 E(B2PLYPD3) =    -0.26825530068839D+03
 E2(B2PLYPD3) =    -0.3130158076D+00 E(B2PLYPD3) =    -0.26825381508281D+03
 E2(B2PLYPD3) =    -0.3129863248D+00 E(B2PLYPD3) =    -0.26825444414909D+03
 E2(B2PLYPD3) =    -0.3129844779D+00 E(B2PLYPD3) =    -0.26825444882329D+03
 E2(B2PLYPD3) =    -0.3130639775D+00 E(B2PLYPD3) =    -0.26825291106947D+03
 E2(B2PLYPD3) =    -0.3130325217D+00 E(B2PLYPD3) =    -0.26825359627957D+03
 E2(B2PLYPD3) =    -0.3130317899D+00 E(B2PLYPD3) =    -0.26825360208503D+03
 E2(B2PLYPD3) =    -0.3130981227D+00 E(B2PLYPD3) =    -0.26825216558594D+03
 E2(B2PLYPD3) =    -0.3130645605D+00 E(B2PLYPD3) =    -0.26825291097846D+03
 E2(B2PLYPD3) =    -0.3130652197D+00 E(B2PLYPD3) =    -0.26825291802247D+03
 E2(B2PLYPD3) =    -0.3130444094D+00 E(B2PLYPD3) =    -0.26825289714543D+03
 E2(B2PLYPD3) =    -0.3130452564D+00 E(B2PLYPD3) =    -0.26825290378540D+03
 E2(B2PLYPD3) =    -0.3130750582D+00 E(B2PLYPD3) =    -0.26825279562025D+03
 E2(B2PLYPD3) =    -0.3129881766D+00 E(B2PLYPD3) =    -0.26825358327621D+03
 E2(B2PLYPD3) =    -0.3129954207D+00 E(B2PLYPD3) =    -0.26825358770694D+03
 E2(B2PLYPD3) =    -0.3130195942D+00 E(B2PLYPD3) =    -0.26825370749900D+03
 E2(B2PLYPD3) =    -0.3129378686D+00 E(B2PLYPD3) =    -0.26825443713603D+03
 E2(B2PLYPD3) =    -0.3129362033D+00 E(B2PLYPD3) =    -0.26825443846808D+03
 E2(B2PLYPD3) =    -0.3129607566D+00 E(B2PLYPD3) =    -0.26825462660066D+03
 E2(B2PLYPD3) =    -0.3128861218D+00 E(B2PLYPD3) =    -0.26825529346601D+03
 SCF Done:  E(RB2PLYPD3) =  -267.942415512     A.U. after    8 cycles
 E2(B2PLYPD3) =    -0.3128801690D+00 E(B2PLYPD3) =    -0.26825529568055D+03
 SCF Done:  E(RB2PLYPD3) =  -267.942489393     A.U. after   11 cycles
 E2(B2PLYPD3) =    -0.3129097689D+00 E(B2PLYPD3) =    -0.26825539916184D+03
 SCF Done:  E(RB2PLYPD3) =  -267.943173385     A.U. after   10 cycles
 E2(B2PLYPD3) =    -0.3128364731D+00 E(B2PLYPD3) =    -0.26825600985847D+03
 SCF Done:  E(RB2PLYPD3) =  -267.943179820     A.U. after    8 cycles
 E2(B2PLYPD3) =    -0.3128351057D+00 E(B2PLYPD3) =    -0.26825601492525D+03
 SCF Done:  E(RB2PLYPD3) =  -267.943035519     A.U. after   10 cycles
 E2(B2PLYPD3) =    -0.3128756263D+00 E(B2PLYPD3) =    -0.26825591114498D+03
 SCF Done:  E(RB2PLYPD3) =  -267.943671262     A.U. after   10 cycles
 E2(B2PLYPD3) =    -0.3128132307D+00 E(B2PLYPD3) =    -0.26825648449281D+03
 SCF Done:  E(RB2PLYPD3) =  -267.943676468     A.U. after    8 cycles
 E2(B2PLYPD3) =    -0.3128121480D+00 E(B2PLYPD3) =    -0.26825648861593D+03
    -- Stationary point found.
 SCF Done:  E(RB2PLYPD3) =  -267.943229856     A.U. after   10 cycles
 E2(B2PLYPD3) =    -0.3128651528D+00 E(B2PLYPD3) =    -0.26825609500862D+03
 SCF Done:  E(RB2PLYPD3) =  -267.943841209     A.U. after   10 cycles
 E2(B2PLYPD3) =    -0.3128098057D+00 E(B2PLYPD3) =    -0.26825665101432D+03
 SCF Done:  E(RB2PLYPD3) =  -267.943842406     A.U. after    8 cycles
 E2(B2PLYPD3) =    -0.3128105506D+00 E(B2PLYPD3) =    -0.26825665295654D+03
 Optimization completed.
    -- Stationary point found.

                         Standard orientation:
 ---------------------------------------------------------------------
 Center     Atomic      Atomic             Coordinates (Angstroms)
 Number     Number       Type             X           Y           Z
 ---------------------------------------------------------------------
      1          6           0       -1.812416   -0.548910   -0.000042
      2          6           0       -0.432535    0.002110    0.009910
      3          8           0       -0.390721    1.366559    0.012993
      4          6           0        0.683147   -0.729006    0.001111
      5          8           0        1.907683   -0.072805   -0.086369
      6          1           0       -2.348687   -0.220885   -0.892225
      7          1           0       -2.368132   -0.191562    0.868429
      8          1           0       -1.793405   -1.636915    0.016694
      9          1           0        0.544489    1.619085    0.005887
     10          1           0        0.681661   -1.808530   -0.027894
     11          1           0        2.519203   -0.456388    0.550244
 ---------------------------------------------------------------------

 The electronic state is 1-A.
 Alpha  occ. eigenvalues --  -19.74985 -19.74319 -10.66974 -10.64865 -10.61161
 Alpha  occ. eigenvalues --   -1.20533  -1.17618  -0.89069  -0.79621  -0.66871
 Alpha  occ. eigenvalues --   -0.61392  -0.59911  -0.51718  -0.49682  -0.46684
 Alpha  occ. eigenvalues --   -0.46303  -0.44216  -0.43061  -0.40577  -0.25941
 Alpha virt. eigenvalues --    0.06552   0.09288   0.10109   0.12165   0.13579
 Alpha virt. eigenvalues --    0.17370   0.17596   0.19893   0.21746   0.24299
 Alpha virt. eigenvalues --    0.25825   0.29412   0.30256   0.32174   0.33613

 Mulliken charges:
               1
     1  C   -0.312691
     2  C    0.214135
     3  O   -0.470189
     4  C   -0.049884
     5  O   -0.506966
     6  H    0.119924
     7  H    0.118947
     8  H    0.110728
     9  H    0.337983
    10  H    0.105829
    11  H    0.332184
 Sum of Mulliken charges =   0.00000

 Dipole moment (field-independent basis, Debye):
    X=              0.8789    Y=             -1.6079    Z=              1.0358  Tot=              2.1049
 Quadrupole moment (field-independent basis, Debye-Ang):
   XX=            -26.5087   YY=            -29.4289   ZZ=            -31.5418
   XY=              0.6678   XZ=              3.2083   YZ=             -0.5224

 Normal termination of Gaussian 09 at Sun Nov 13 03:08:02 2022.
