 Gaussian 09, Revision D.01,
 Gaussian 09:  ES64L-G09RevD.01 24-Apr-2013

 ----------------------------------------------------------------------
 #P opt=(modredundant, calcfc, noeigentest, maxStep=5) scf=(tight, dire
 ct) integral=(grid=ultrafine, Acc2E=12) guess=read b2plypd3/def2tzvp I
 Op(2/9=2000) scf=xqc
 ----------------------------------------------------------------------

 ------------------
 1-Propene-1,2-diol
 ------------------
 Symbolic Z-matrix:
 Charge =  0 Multiplicity = 1

 SCF Done:  E(RB2PLYPD3) =  -267.943842018     A.U. after    1 cycles
 E2(B2PLYPD3) =    -0.3128109556D+00 E(B2PLYPD3) =    -0.26825665297326D+03
 E2(B2PLYPD3) =    -0.3128109556D+00 E(B2PLYPD3) =    -0.26825665297326D+03

  Exact polarizability:  58.302  -4.021  45.398   1.085  -0.316  32.899
 Approx polarizability:  60.257  -7.098  51.154   1.067  -0.653  39.681

 Optimization completed.
    -- Stationary point found.
 SCF Done:  E(RB2PLYPD3) =  -267.943569842     A.U. after   11 cycles
 E2(B2PLYPD3) =    -0.3127900871D+00 E(B2PLYPD3) =    -0.26825635992931D+03
 SCF Done:  E(RB2PLYPD3) =  -267.943621330     A.U. after    9 cycles
 E2(B2PLYPD3) =    -0.3127704775D+00 E(B2PLYPD3) =    -0.26825639180797D+03
 Optimization completed.
 SCF Done:  E(RB2PLYPD3) =  -267.942863719     A.U. after   11 cycles
 E2(B2PLYPD3) =    -0.3127416548D+00 E(B2PLYPD3) =    -0.26825560537413D+03
 SCF Done:  E(RB2PLYPD3) =  -267.942935712     A.U. after   10 cycles
 E2(B2PLYPD3) =    -0.3127038639D+00 E(B2PLYPD3) =    -0.26825563957621D+03
 SCF Done:  E(RB2PLYPD3) =  -267.941762548     A.U. after   11 cycles
 E2(B2PLYPD3) =    -0.3126665618D+00 E(B2PLYPD3) =    -0.26825442911002D+03
 SCF Done:  E(RB2PLYPD3) =  -267.941858413     A.U. after   10 cycles
 E2(B2PLYPD3) =    -0.3126123136D+00 E(B2PLYPD3) =    -0.26825447072652D+03
 SCF Done:  E(RB2PLYPD3) =  -267.940371962     A.U. after   11 cycles
 E2(B2PLYPD3) =    -0.3125663814D+00 E(B2PLYPD3) =    -0.26825293834321D+03
 SCF Done:  E(RB2PLYPD3) =  -267.940494932     A.U. after   10 cycles
 E2(B2PLYPD3) =    -0.3124982690D+00 E(B2PLYPD3) =    -0.26825299320115D+03
 SCF Done:  E(RB2PLYPD3) =  -267.940498308     A.U. after    7 cycles
 E2(B2PLYPD3) =    -0.3124950763D+00 E(B2PLYPD3) =    -0.26825299338390D+03
 E2(B2PLYPD3) =    -0.3124440914D+00 E(B2PLYPD3) =    -0.26825126518361D+03
 E2(B2PLYPD3) =    -0.3123632284D+00 E(B2PLYPD3) =    -0.26825133669958D+03
 E2(B2PLYPD3) =    -0.3123648745D+00 E(B2PLYPD3) =    -0.26825133709776D+03
 E2(B2PLYPD3) =    -0.3123072014D+00 E(B2PLYPD3) =    -0.26824954545577D+03
 E2(B2PLYPD3) =    -0.3122274058D+00 E(B2PLYPD3) =    -0.26824963524437D+03
 E2(B2PLYPD3) =    -0.3122271107D+00 E(B2PLYPD3) =    -0.26824963565397D+03
 E2(B2PLYPD3) =    -0.3121635806D+00 E(B2PLYPD3) =    -0.26824790708953D+03
 E2(B2PLYPD3) =    -0.3120877793D+00 E(B2PLYPD3) =    -0.26824801342650D+03
 E2(B2PLYPD3) =    -0.3120884008D+00 E(B2PLYPD3) =    -0.26824801390788D+03
 E2(B2PLYPD3) =    -0.3121348214D+00 E(B2PLYPD3) =    -0.26824726673818D+03
 E2(B2PLYPD3) =    -0.3121639457D+00 E(B2PLYPD3) =    -0.26824739255138D+03
 E2(B2PLYPD3) =    -0.3122786907D+00 E(B2PLYPD3) =    -0.26824904560230D+03
 E2(B2PLYPD3) =    -0.3123238856D+00 E(B2PLYPD3) =    -0.26824915552144D+03
 E2(B2PLYPD3) =    -0.3124253407D+00 E(B2PLYPD3) =    -0.26825091548200D+03
 E2(B2PLYPD3) =    -0.3124810539D+00 E(B2PLYPD3) =    -0.26825100693651D+03
 E2(B2PLYPD3) =    -0.3124831239D+00 E(B2PLYPD3) =    -0.26825100711855D+03
 E2(B2PLYPD3) =    -0.3125626827D+00 E(B2PLYPD3) =    -0.26825272795599D+03
 E2(B2PLYPD3) =    -0.3126161502D+00 E(B2PLYPD3) =    -0.26825279980087D+03
 E2(B2PLYPD3) =    -0.3126214604D+00 E(B2PLYPD3) =    -0.26825279993837D+03
 SCF Done:  E(RB2PLYPD3) =  -267.941649757     A.U. after   11 cycles
 E2(B2PLYPD3) =    -0.3126766650D+00 E(B2PLYPD3) =    -0.26825432642206D+03
 SCF Done:  E(RB2PLYPD3) =  -267.941652151     A.U. after   10 cycles
 E2(B2PLYPD3) =    -0.3127283703D+00 E(B2PLYPD3) =    -0.26825438052122D+03
 SCF Done:  E(RB2PLYPD3) =  -267.941654401     A.U. after    7 cycles
 E2(B2PLYPD3) =    -0.3127263141D+00 E(B2PLYPD3) =    -0.26825438071485D+03
 SCF Done:  E(RB2PLYPD3) =  -267.942811416     A.U. after   11 cycles
 E2(B2PLYPD3) =    -0.3127575310D+00 E(B2PLYPD3) =    -0.26825556894670D+03
 SCF Done:  E(RB2PLYPD3) =  -267.942818927     A.U. after   10 cycles
 E2(B2PLYPD3) =    -0.3127920654D+00 E(B2PLYPD3) =    -0.26825561099239D+03
 SCF Done:  E(RB2PLYPD3) =  -267.942818351     A.U. after    7 cycles
 E2(B2PLYPD3) =    -0.3127927707D+00 E(B2PLYPD3) =    -0.26825561112119D+03
 SCF Done:  E(RB2PLYPD3) =  -267.943551177     A.U. after   10 cycles
 E2(B2PLYPD3) =    -0.3128014756D+00 E(B2PLYPD3) =    -0.26825635265304D+03
 SCF Done:  E(RB2PLYPD3) =  -267.943569332     A.U. after   10 cycles
 E2(B2PLYPD3) =    -0.3128188689D+00 E(B2PLYPD3) =    -0.26825638820087D+03
    -- Stationary point found.
 SCF Done:  E(RB2PLYPD3) =  -267.943808866     A.U. after   10 cycles
 E2(B2PLYPD3) =    -0.3128113301D+00 E(B2PLYPD3) =    -0.26825662019596D+03
 SCF Done:  E(RB2PLYPD3) =  -267.943841675     A.U. after   10 cycles
 E2(B2PLYPD3) =    -0.3128112291D+00 E(B2PLYPD3) =    -0.26825665290398D+03
 Optimization completed.
    -- Stationary point found.

                         Standard orientation:
 ---------------------------------------------------------------------
 Center     Atomic      Atomic             Coordinates (Angstroms)
 Number     Number       Type             X           Y           Z
 ---------------------------------------------------------------------
      1          6           0       -1.812341   -0.549068   -0.000332
      2          6           0       -0.432555    0.002265    0.010457
      3          8           0       -0.390756    1.366715    0.013006
      4          6           0        0.683087   -0.728943    0.001625
      5          8           0        1.907687   -0.072980   -0.086751
      6          1           0       -2.348176   -0.220133   -0.892421
      7          1           0       -2.368730   -0.192903    0.868210
      8          1           0       -1.793060   -1.637090    0.015258
      9          1           0        0.544430    1.619399    0.006164
     10          1           0        0.681478   -1.808469   -0.027579
     11          1           0        2.519459   -0.456207    0.549828
 ---------------------------------------------------------------------

 The electronic state is 1-A.
 Alpha  occ. eigenvalues --  -19.74984 -19.74321 -10.66976 -10.64865 -10.61162
 Alpha  occ. eigenvalues --   -1.20532  -1.17618  -0.89070  -0.79619  -0.66873
 Alpha  occ. eigenvalues --   -0.61391  -0.59910  -0.51719  -0.49680  -0.46686
 Alpha  occ. eigenvalues --   -0.46302  -0.44214  -0.43062  -0.40574  -0.25942
 Alpha virt. eigenvalues --    0.06553   0.09286   0.10110   0.12164   0.13578
 Alpha virt. eigenvalues --    0.17371   0.17596   0.19894   0.21744   0.24300
 Alpha virt. eigenvalues --    0.25828   0.29415   0.30252   0.32176   0.33614

 Mulliken charges:
               1
     1  C   -0.312701
     2  C    0.214165
     3  O   -0.470192
     4  C   -0.049908
     5  O   -0.506947
     6  H    0.119931
     7  H    0.118931
     8  H    0.110741
     9  H    0.337987
    10  H    0.105815
    11  H    0.332178
 Sum of Mulliken charges =  -0.00000

 Dipole moment (field-independent basis, Debye):
    X=              0.8791    Y=             -1.6068    Z=              1.0355  Tot=              2.1040
 Quadrupole moment (field-independent basis, Debye-Ang):
   XX=            -26.5071   YY=            -29.4283   ZZ=            -31.5433
   XY=              0.6704   XZ=              3.2090   YZ=             -0.5204

 Normal termination of Gaussian 09 at Sun Nov 13 06:59:09 2022.
