 Gaussian 09, Revision D.01,
 Gaussian 09:  ES64L-G09RevD.01 24-Apr-2013

 ----------------------------------------------------------------------
 #P opt=(modredundant, calcfc, noeigentest, maxStep=5) scf=(tight, dire
 ct) integral=(grid=ultrafine, Acc2E=12) guess=read b2plypd3/def2tzvp I
 Op(2/9=2000) scf=xqc
 ----------------------------------------------------------------------

 ------------------
 1-Propene-1,2-diol
 ------------------
 Symbolic Z-matrix:
 Charge =  0 Multiplicity = 1

 SCF Done:  E(RB2PLYPD3) =  -267.943842018     A.U. after    1 cycles
 E2(B2PLYPD3) =    -0.3128109556D+00 E(B2PLYPD3) =    -0.26825665297326D+03
 E2(B2PLYPD3) =    -0.3128109556D+00 E(B2PLYPD3) =    -0.26825665297326D+03

  Exact polarizability:  58.302  -4.021  45.398   1.085  -0.316  32.899
 Approx polarizability:  60.257  -7.098  51.154   1.067  -0.653  39.681

 Optimization completed.
    -- Stationary point found.
 SCF Done:  E(RB2PLYPD3) =  -267.943554066     A.U. after   11 cycles
 E2(B2PLYPD3) =    -0.3129316998D+00 E(B2PLYPD3) =    -0.26825648576570D+03
 SCF Done:  E(RB2PLYPD3) =  -267.943744709     A.U. after   10 cycles
 E2(B2PLYPD3) =    -0.3128450279D+00 E(B2PLYPD3) =    -0.26825658973643D+03
 Optimization completed.
 SCF Done:  E(RB2PLYPD3) =  -267.943349128     A.U. after   11 cycles
 E2(B2PLYPD3) =    -0.3129496141D+00 E(B2PLYPD3) =    -0.26825629874212D+03
 SCF Done:  E(RB2PLYPD3) =  -267.943567740     A.U. after   10 cycles
 E2(B2PLYPD3) =    -0.3128555216D+00 E(B2PLYPD3) =    -0.26825642326129D+03
 SCF Done:  E(RB2PLYPD3) =  -267.943106136     A.U. after   11 cycles
 E2(B2PLYPD3) =    -0.3129455407D+00 E(B2PLYPD3) =    -0.26825605167645D+03
 SCF Done:  E(RB2PLYPD3) =  -267.943348849     A.U. after   10 cycles
 E2(B2PLYPD3) =    -0.3128518553D+00 E(B2PLYPD3) =    -0.26825620070443D+03
 SCF Done:  E(RB2PLYPD3) =  -267.943350336     A.U. after    7 cycles
 E2(B2PLYPD3) =    -0.3128507681D+00 E(B2PLYPD3) =    -0.26825620110454D+03
 SCF Done:  E(RB2PLYPD3) =  -267.942889307     A.U. after   11 cycles
 E2(B2PLYPD3) =    -0.3129212806D+00 E(B2PLYPD3) =    -0.26825581058762D+03
 SCF Done:  E(RB2PLYPD3) =  -267.943147932     A.U. after   10 cycles
 E2(B2PLYPD3) =    -0.3128374741D+00 E(B2PLYPD3) =    -0.26825598540654D+03
 E2(B2PLYPD3) =    -0.3128375467D+00 E(B2PLYPD3) =    -0.26825598586892D+03
 E2(B2PLYPD3) =    -0.3128854242D+00 E(B2PLYPD3) =    -0.26825564844784D+03
 E2(B2PLYPD3) =    -0.3128212267D+00 E(B2PLYPD3) =    -0.26825584577691D+03
 E2(B2PLYPD3) =    -0.3128246905D+00 E(B2PLYPD3) =    -0.26825584630695D+03
 E2(B2PLYPD3) =    -0.3128508973D+00 E(B2PLYPD3) =    -0.26825562338455D+03
 E2(B2PLYPD3) =    -0.3128177793D+00 E(B2PLYPD3) =    -0.26825583188851D+03
 E2(B2PLYPD3) =    -0.3128236068D+00 E(B2PLYPD3) =    -0.26825583228564D+03
 E2(B2PLYPD3) =    -0.3128274511D+00 E(B2PLYPD3) =    -0.26825574632065D+03
 E2(B2PLYPD3) =    -0.3128238392D+00 E(B2PLYPD3) =    -0.26825594872452D+03
 E2(B2PLYPD3) =    -0.3127377764D+00 E(B2PLYPD3) =    -0.26825285641692D+03
 E2(B2PLYPD3) =    -0.3126449074D+00 E(B2PLYPD3) =    -0.26825347707330D+03
 E2(B2PLYPD3) =    -0.3126677136D+00 E(B2PLYPD3) =    -0.26825356081325D+03
 E2(B2PLYPD3) =    -0.3126163900D+00 E(B2PLYPD3) =    -0.26825418007202D+03
 E2(B2PLYPD3) =    -0.3126279558D+00 E(B2PLYPD3) =    -0.26825425464998D+03
 E2(B2PLYPD3) =    -0.3126239216D+00 E(B2PLYPD3) =    -0.26825484880029D+03
 E2(B2PLYPD3) =    -0.3126228222D+00 E(B2PLYPD3) =    -0.26825491602462D+03
 E2(B2PLYPD3) =    -0.3126622084D+00 E(B2PLYPD3) =    -0.26825544819553D+03
 E2(B2PLYPD3) =    -0.3126465932D+00 E(B2PLYPD3) =    -0.26825551121212D+03
 E2(B2PLYPD3) =    -0.3127192547D+00 E(B2PLYPD3) =    -0.26825594115016D+03
 SCF Done:  E(RB2PLYPD3) =  -267.943316204     A.U. after   10 cycles
 E2(B2PLYPD3) =    -0.3126878585D+00 E(B2PLYPD3) =    -0.26825600406270D+03
 SCF Done:  E(RB2PLYPD3) =  -267.943516090     A.U. after   11 cycles
 E2(B2PLYPD3) =    -0.3127831079D+00 E(B2PLYPD3) =    -0.26825629919811D+03
 SCF Done:  E(RB2PLYPD3) =  -267.943630511     A.U. after   10 cycles
 E2(B2PLYPD3) =    -0.3127357599D+00 E(B2PLYPD3) =    -0.26825636627120D+03
 SCF Done:  E(RB2PLYPD3) =  -267.943639705     A.U. after    6 cycles
 E2(B2PLYPD3) =    -0.3127267202D+00 E(B2PLYPD3) =    -0.26825636642522D+03
 SCF Done:  E(RB2PLYPD3) =  -267.943665640     A.U. after   11 cycles
 E2(B2PLYPD3) =    -0.3128419749D+00 E(B2PLYPD3) =    -0.26825650761475D+03
 SCF Done:  E(RB2PLYPD3) =  -267.943809829     A.U. after   10 cycles
 E2(B2PLYPD3) =    -0.3127727568D+00 E(B2PLYPD3) =    -0.26825658258549D+03
 SCF Done:  E(RB2PLYPD3) =  -267.943813450     A.U. after    7 cycles
 E2(B2PLYPD3) =    -0.3127695219D+00 E(B2PLYPD3) =    -0.26825658297193D+03
    -- Stationary point found.
 SCF Done:  E(RB2PLYPD3) =  -267.943671154     A.U. after   11 cycles
 E2(B2PLYPD3) =    -0.3128941900D+00 E(B2PLYPD3) =    -0.26825656534372D+03
 SCF Done:  E(RB2PLYPD3) =  -267.943829429     A.U. after   10 cycles
 E2(B2PLYPD3) =    -0.3128231286D+00 E(B2PLYPD3) =    -0.26825665255719D+03
 SCF Done:  E(RB2PLYPD3) =  -267.943842719     A.U. after    7 cycles
 E2(B2PLYPD3) =    -0.3128102499D+00 E(B2PLYPD3) =    -0.26825665296852D+03
 Optimization completed.
    -- Stationary point found.

                         Standard orientation:
 ---------------------------------------------------------------------
 Center     Atomic      Atomic             Coordinates (Angstroms)
 Number     Number       Type             X           Y           Z
 ---------------------------------------------------------------------
      1          6           0       -1.812412   -0.548928   -0.000137
      2          6           0       -0.432543    0.002150    0.010016
      3          8           0       -0.390694    1.366595    0.013050
      4          6           0        0.683122   -0.729003    0.001310
      5          8           0        1.907669   -0.072876   -0.086520
      6          1           0       -2.348275   -0.220894   -0.892546
      7          1           0       -2.368545   -0.191629    0.868093
      8          1           0       -1.793403   -1.636939    0.016639
      9          1           0        0.544498    1.619149    0.005901
     10          1           0        0.681634   -1.808537   -0.027590
     11          1           0        2.519297   -0.456218    0.550130
 ---------------------------------------------------------------------

 The electronic state is 1-A.
 Alpha  occ. eigenvalues --  -19.74985 -19.74320 -10.66975 -10.64865 -10.61161
 Alpha  occ. eigenvalues --   -1.20533  -1.17618  -0.89070  -0.79621  -0.66872
 Alpha  occ. eigenvalues --   -0.61392  -0.59911  -0.51719  -0.49681  -0.46685
 Alpha  occ. eigenvalues --   -0.46302  -0.44215  -0.43061  -0.40576  -0.25941
 Alpha virt. eigenvalues --    0.06552   0.09288   0.10109   0.12165   0.13579
 Alpha virt. eigenvalues --    0.17371   0.17595   0.19893   0.21746   0.24299
 Alpha virt. eigenvalues --    0.25825   0.29414   0.30254   0.32175   0.33614

 Mulliken charges:
               1
     1  C   -0.312699
     2  C    0.214153
     3  O   -0.470191
     4  C   -0.049887
     5  O   -0.506969
     6  H    0.119921
     7  H    0.118951
     8  H    0.110736
     9  H    0.337982
    10  H    0.105822
    11  H    0.332181
 Sum of Mulliken charges =   0.00000

 Dipole moment (field-independent basis, Debye):
    X=              0.8789    Y=             -1.6074    Z=              1.0357  Tot=              2.1045
 Quadrupole moment (field-independent basis, Debye-Ang):
   XX=            -26.5077   YY=            -29.4290   ZZ=            -31.5422
   XY=              0.6692   XZ=              3.2086   YZ=             -0.5226

 Normal termination of Gaussian 09 at Sun Nov 13 06:32:26 2022.
