 Gaussian 09, Revision D.01,
 Gaussian 09:  ES64L-G09RevD.01 24-Apr-2013

 ----------------------------------------------------------------------
 #P guess=read ub2plypd3/def2tzvp freq IOp(7/33=1) scf=(tight, direct)
 integral=(grid=ultrafine, Acc2E=12) IOp(2/9=2000) scf=xqc
 ----------------------------------------------------------------------

 ---
 TS1
 ---
 Symbolic Z-matrix:
 Charge =  0 Multiplicity = 2

                         Standard orientation:
 ---------------------------------------------------------------------
 Center     Atomic      Atomic             Coordinates (Angstroms)
 Number     Number       Type             X           Y           Z
 ---------------------------------------------------------------------
      1          7           0       -1.873387   -0.340135   -0.000013
      2          1           0       -2.251732    0.163048    0.806344
      3          1           0       -2.251777    0.163174   -0.806268
      4          6           0        1.494348   -0.441849   -0.000004
      5          6           0        0.501481    0.694153    0.000006
      6          1           0        1.372564   -1.072362    0.880714
      7          1           0        1.372569   -1.072341   -0.880737
      8          1           0        2.522175   -0.067335    0.000004
      9          1           0       -0.654000    0.133117   -0.000009
     10          1           0        0.514471    1.309919   -0.896941
     11          1           0        0.514464    1.309899    0.896968
 ---------------------------------------------------------------------

 SCF Done:  E(UB2PLYPD3) =  -135.423041017     A.U. after    1 cycles
 E2(B2PLYPD3) =    -0.1842381587D+00 E(B2PLYPD3) =    -0.13560727917616D+03
 E2(B2PLYPD3) =    -0.1842381587D+00 E(B2PLYPD3) =    -0.13560727917616D+03

 The electronic state is 2-A.
 Alpha  occ. eigenvalues --  -14.83813 -10.61734 -10.60225  -0.97724  -0.87331
 Alpha  occ. eigenvalues --   -0.71574  -0.53746  -0.53442  -0.51433  -0.45903
 Alpha  occ. eigenvalues --   -0.44088  -0.41468  -0.37249  -0.28333
 Alpha virt. eigenvalues --    0.06749   0.10101   0.12934   0.13321   0.16140
 Alpha virt. eigenvalues --    0.16696   0.17101   0.22354   0.24395   0.25091
 Alpha virt. eigenvalues --    0.28224   0.29288   0.29862   0.40034   0.40542

  Beta  occ. eigenvalues --  -14.82083 -10.60633 -10.60268  -0.92720  -0.85664
  Beta  occ. eigenvalues --   -0.69696  -0.52439  -0.50898  -0.49785  -0.43808
  Beta  occ. eigenvalues --   -0.42435  -0.41181  -0.33257
  Beta virt. eigenvalues --   -0.01835   0.07148   0.10395   0.13482   0.13564
  Beta virt. eigenvalues --    0.16279   0.16837   0.17366   0.22733   0.24432
  Beta virt. eigenvalues --    0.25610   0.28264   0.29727   0.29847   0.41911

 Mulliken charges and spin densities:
               1          2
     1  N   -0.568478   0.657146
     2  H    0.221998  -0.018047
     3  H    0.221999  -0.018047
     4  C   -0.285027  -0.023651
     5  C   -0.319947   0.521745
     6  H    0.106728   0.004425
     7  H    0.106730   0.004425
     8  H    0.110430   0.029389
     9  H    0.190422  -0.135210
    10  H    0.107573  -0.011087
    11  H    0.107573  -0.011088
 Sum of Mulliken charges =  -0.00000   1.00000

 Dipole moment (field-independent basis, Debye):
    X=              0.1379    Y=              1.6705    Z=              0.0001  Tot=              1.6762
 Quadrupole moment (field-independent basis, Debye-Ang):
   XX=            -20.9380   YY=            -23.9620   ZZ=            -20.2844
   XY=             -3.3066   XZ=             -0.0003   YZ=             -0.0002

  Exact polarizability:  64.758   5.633  37.807   0.000  -0.000  35.008
 Approx polarizability:  53.911   4.996  39.433   0.000  -0.000  39.399

 ******    1 imaginary frequencies (negative Signs) ******

                      1                      2                      3
                      A                      A                      A
 Frequencies --  -1711.7079                16.5919               145.1855
 Red. masses --      1.0863                 1.0816                 2.6834
 Frc consts  --      1.8753                 0.0002                 0.0333
 IR Inten    --    820.7801                45.8966                 5.8248

                      4                      5                      6
                      A                      A                      A
 Frequencies --    166.8345               413.9835               497.3500
 Red. masses --      1.0817                 1.0154                 2.2966
 Frc consts  --      0.0177                 0.1025                 0.3347
 IR Inten    --      0.1943                 0.9358                 0.6243

                      7                      8                      9
                      A                      A                      A
 Frequencies --    760.2698               769.3872               886.6211
 Red. masses --      1.1185                 1.3862                 1.0484
 Frc consts  --      0.3809                 0.4835                 0.4856
 IR Inten    --      3.6131                63.4117                 0.5084

                     10                     11                     12
                      A                      A                      A
 Frequencies --    945.1929              1053.1742              1212.6658
 Red. masses --      1.2483                 2.9348                 1.4036
 Frc consts  --      0.6571                 1.9179                 1.2161
 IR Inten    --     95.3781                 7.7914                 4.9907

                     13                     14                     15
                      A                      A                      A
 Frequencies --   1242.1463              1316.7350              1419.8504
 Red. masses --      1.4005                 1.0829                 1.2060
 Frc consts  --      1.2731                 1.1062                 1.4325
 IR Inten    --      0.3970                69.0429                 1.6078

                     16                     17                     18
                      A                      A                      A
 Frequencies --   1477.1085              1479.3953              1502.9738
 Red. masses --      1.0339                 1.1276                 1.0398
 Frc consts  --      1.3291                 1.4540                 1.3839
 IR Inten    --      3.5236                 1.4948                 8.2784

                     19                     20                     21
                      A                      A                      A
 Frequencies --   1506.8828              1563.4860              3036.9678
 Red. masses --      1.0480                 1.0757                 1.0421
 Frc consts  --      1.4021                 1.5492                 5.6628
 IR Inten    --      4.2520                28.2547                24.3924

                     22                     23                     24
                      A                      A                      A
 Frequencies --   3090.1060              3104.2030              3125.9976
 Red. masses --      1.0599                 1.0861                 1.1024
 Frc consts  --      5.9628                 6.1665                 6.3471
 IR Inten    --      8.4074                28.4944                 8.7746

                     25                     26                     27
                      A                      A                      A
 Frequencies --   3166.1402              3398.3955              3494.8150
 Red. masses --      1.1093                 1.0488                 1.0902
 Frc consts  --      6.5518                 7.1365                 7.8454
 IR Inten    --     30.7344                 8.0632                 0.0629

 - Thermochemistry -
 -------------------
 Temperature   298.150 Kelvin.  Pressure   1.00000 Atm.
 Atom     1 has atomic number  7 and mass  14.00307

 Molecular mass:    46.06567 amu.
 Principal axes and moments of inertia in atomic units:
                           1         2         3
     Eigenvalues --    71.42279 374.59373 413.90855
           X            0.99955  -0.03003  -0.00000
           Y            0.03003   0.99955  -0.00001
           Z            0.00000   0.00001   1.00000
 This molecule is an asymmetric top.
 Rotational symmetry number  1.
 Rotational temperatures (Kelvin)      1.21269     0.23122     0.20926
 Rotational constants (GHZ):          25.26842     4.81786     4.36024
    1 imaginary frequencies ignored.
 Zero-point vibrational energy     243993.1 (Joules/Mol)
                                   58.31575 (Kcal/Mol)
 Warning -- explicit consideration of   5 degrees of freedom as
           vibrations may cause significant error
 Vibrational temperatures:     23.87   208.89   240.04   595.63   715.57
          (Kelvin)           1093.86  1106.98  1275.65  1359.92  1515.28
                             1744.75  1787.17  1894.49  2042.85  2125.23
                             2128.52  2162.44  2168.07  2249.50  4369.51
                             4445.97  4466.25  4497.61  4555.36  4889.53
                             5028.25

 Zero-point correction=                           0.092932 (Hartree/Particle)
 Thermal correction to Energy=                    0.098842
 Thermal correction to Enthalpy=                  0.099786
 Thermal correction to Gibbs Free Energy=         0.062972
 Sum of electronic and zero-point Energies=           -135.514347
 Sum of electronic and thermal Energies=              -135.508437
 Sum of electronic and thermal Enthalpies=            -135.507493
 Sum of electronic and thermal Free Energies=         -135.544307

                     E (Thermal)             CV                S
                      KCal/Mol        Cal/Mol-Kelvin    Cal/Mol-Kelvin
 Total                   62.024             18.122             77.481
 Electronic               0.000              0.000              1.377
 Translational            0.889              2.981             37.408
 Rotational               0.889              2.981             23.919
 Vibrational             60.247             12.160             14.777
 Vibration     1          0.593              1.986              7.005
 Vibration     2          0.617              1.908              2.734
 Vibration     3          0.624              1.883              2.471
 Vibration     4          0.778              1.440              0.913
 Vibration     5          0.853              1.256              0.665

 Optimization completed.
    -- Stationary point found.
 Normal termination of Gaussian 09 at Sun Nov 13 01:53:41 2022.
