 Gaussian 09, Revision D.01,
 Gaussian 09:  EM64L-G09RevD.01 24-Apr-2013

 ----------------------------------------------------------------------
 #P guess=read ub2plypd3/def2tzvp freq IOp(7/33=1) integral=(grid=ultra
 fine, Acc2E=12) IOp(2/9=2000) scf=(direct,tight)
 ----------------------------------------------------------------------

 ----
 OCHO
 ----
 Symbolic Z-matrix:
 Charge =  0 Multiplicity = 2

                         Standard orientation:
 ---------------------------------------------------------------------
 Center     Atomic      Atomic             Coordinates (Angstroms)
 Number     Number       Type             X           Y           Z
 ---------------------------------------------------------------------
      1          8           0       -1.043337   -0.259075    0.000000
      2          6           0        0.000002    0.435971   -0.000001
      3          8           0        1.043333   -0.259081    0.000000
      4          1           0        0.000023    1.529424    0.000002
 ---------------------------------------------------------------------

 SCF Done:  E(UB2PLYPD3) =  -188.831667110     A.U. after    2 cycles
 E2(B2PLYPD3) =    -0.2052582338D+00 E(B2PLYPD3) =    -0.18903692534375D+03
 E2(B2PLYPD3) =    -0.2052582338D+00 E(B2PLYPD3) =    -0.18903692534375D+03

 The electronic state is 2-A.
 Alpha  occ. eigenvalues --  -19.81274 -19.81272 -10.79640  -1.31440  -1.19473
 Alpha  occ. eigenvalues --   -0.74475  -0.65801  -0.59253  -0.56583  -0.46345
 Alpha  occ. eigenvalues --   -0.46170  -0.42843
 Alpha virt. eigenvalues --    0.02341   0.09621   0.14654   0.15740   0.23626
 Alpha virt. eigenvalues --    0.30432   0.42591   0.43381   0.45084   0.46591
 Alpha virt. eigenvalues --    0.52364   0.56066   0.56407   0.59994   0.63050

  Beta  occ. eigenvalues --  -19.79316 -19.79314 -10.79838  -1.27078  -1.13638
  Beta  occ. eigenvalues --   -0.73156  -0.58982  -0.57120  -0.55475  -0.40396
  Beta  occ. eigenvalues --   -0.35555
  Beta virt. eigenvalues --   -0.12875   0.02729   0.09634   0.15028   0.16963
  Beta virt. eigenvalues --    0.23385   0.31074   0.42941   0.43871   0.45248
  Beta virt. eigenvalues --    0.47703   0.52943   0.56582   0.58540   0.62093

 Mulliken charges and spin densities:
               1          2
     1  O   -0.240122   0.568153
     2  C    0.365077  -0.121023
     3  O   -0.240129   0.568125
     4  H    0.115174  -0.015255
 Sum of Mulliken charges =   0.00000   1.00000

 Dipole moment (field-independent basis, Debye):
    X=              0.0000    Y=              2.6669    Z=              0.0000  Tot=              2.6669
 Quadrupole moment (field-independent basis, Debye-Ang):
   XX=            -19.1026   YY=            -14.6845   ZZ=            -16.0552
   XY=              0.0000   XZ=              0.0000   YZ=              0.0000

  Exact polarizability:-397.877  -0.002  18.271   0.000  -0.092-869.874
 Approx polarizability:  49.030   0.000  19.220   0.000   0.000  13.201

                      1                      2                      3
                      A                      A                      A
 Frequencies --    651.3862              1282.0556              1478.8421
 Red. masses --     12.2034                 1.1753                 8.6591
 Frc consts  --      3.0508                 1.1382                11.1575
 IR Inten    --     22.6250                85.3442                54.7004

                      4                      5                      6
                      A                      A                      A
 Frequencies --   3099.7162              5778.2888             11864.0891
 Red. masses --      1.0938                 7.0451                 1.5660
 Frc consts  --      6.1917               138.5910               129.8726
 IR Inten    --     31.9900            498793.4795           4546968.6148

 - Thermochemistry -
 -------------------
 Temperature   298.150 Kelvin.  Pressure   1.00000 Atm.
 Atom     1 has atomic number  8 and mass  15.99491

 Molecular mass:    44.99765 amu.
 Principal axes and moments of inertia in atomic units:
                           1         2         3
     Eigenvalues --    24.04934 124.35327 148.40261
           X            1.00000   0.00000   0.00000
           Y            0.00000   1.00000   0.00000
           Z            0.00000   0.00000   1.00000
 This molecule is an asymmetric top.
 Rotational symmetry number  1.
 Rotational temperatures (Kelvin)      3.60151     0.69651     0.58364
 Rotational constants (GHZ):          75.04328    14.51302    12.16111
 Zero-point vibrational energy     144475.3 (Joules/Mol)
                                   34.53042 (Kcal/Mol)
 Vibrational temperatures:    937.20  1844.59  2127.72  4459.79  8313.66
          (Kelvin)          17069.76

 Zero-point correction=                           0.055028 (Hartree/Particle)
 Thermal correction to Energy=                    0.058011
 Thermal correction to Enthalpy=                  0.058956
 Thermal correction to Gibbs Free Energy=         0.030519
 Sum of electronic and zero-point Energies=           -188.981898
 Sum of electronic and thermal Energies=              -188.978914
 Sum of electronic and thermal Enthalpies=            -188.977970
 Sum of electronic and thermal Free Energies=         -189.006406

                     E (Thermal)             CV                S
                      KCal/Mol        Cal/Mol-Kelvin    Cal/Mol-Kelvin
 Total                   36.403              7.125             59.850
 Electronic               0.000              0.000              1.377
 Translational            0.889              2.981             37.338
 Rotational               0.889              2.981             20.723
 Vibrational             34.625              1.163              0.412

 Optimization completed.
    -- Stationary point found.
 Normal termination of Gaussian 09 at Thu Jan 16 16:11:26 2025.
