 Gaussian 09, Revision D.01,
 Gaussian 09:  ES64L-G09RevD.01 24-Apr-2013

 ----------------------------------------------------------------------
 #P guess=read b2plypd3/def2tzvp freq IOp(7/33=1) scf=(tight, direct) i
 ntegral=(grid=ultrafine, Acc2E=12) IOp(2/9=2000) scf=xqc
 ----------------------------------------------------------------------

 --------------------
 Nitrosodioxaziridine
 --------------------
 Symbolic Z-matrix:
 Charge =  0 Multiplicity = 1

                         Standard orientation:
 ---------------------------------------------------------------------
 Center     Atomic      Atomic             Coordinates (Angstroms)
 Number     Number       Type             X           Y           Z
 ---------------------------------------------------------------------
      1          8           0       -1.967862    0.000000    0.121294
      2          7           0       -0.969963    0.000000   -0.461577
      3          7           0        0.319653   -0.000001    0.616128
      4          8           0        1.268441    0.734738   -0.128263
      5          8           0        1.268441   -0.734737   -0.128263
 ---------------------------------------------------------------------

 SCF Done:  E(RB2PLYPD3) =  -334.407896877     A.U. after    1 cycles
 E2(B2PLYPD3) =    -0.3788985997D+00 E(B2PLYPD3) =    -0.33478679547691D+03
 E2(B2PLYPD3) =    -0.3788985997D+00 E(B2PLYPD3) =    -0.33478679547691D+03

 The electronic state is 1-A.
 Alpha  occ. eigenvalues --  -19.88158 -19.87778 -19.87763 -15.06028 -15.02664
 Alpha  occ. eigenvalues --   -1.43870  -1.41441  -1.04730  -0.93761  -0.80364
 Alpha  occ. eigenvalues --   -0.68014  -0.63429  -0.60838  -0.58958  -0.54599
 Alpha  occ. eigenvalues --   -0.53068  -0.48167  -0.41071  -0.33933
 Alpha virt. eigenvalues --   -0.06458   0.01683   0.05815   0.07807   0.15143
 Alpha virt. eigenvalues --    0.24485   0.30207   0.33908   0.34402   0.39823
 Alpha virt. eigenvalues --    0.42008   0.42488   0.43027   0.44258   0.45258

 Mulliken charges:
               1
     1  O   -0.120619
     2  N    0.207505
     3  N    0.113568
     4  O   -0.100227
     5  O   -0.100227
 Sum of Mulliken charges =  -0.00000

 Dipole moment (field-independent basis, Debye):
    X=             -1.0143    Y=             -0.0000    Z=             -0.0826  Tot=              1.0177
 Quadrupole moment (field-independent basis, Debye-Ang):
   XX=            -27.9289   YY=            -25.1188   ZZ=            -28.1228
   XY=              0.0000   XZ=              0.0490   YZ=              0.0000

  Exact polarizability:  46.202   0.000  23.348   0.153  -0.000  21.607
 Approx polarizability:  54.298  -0.000  35.181  -1.798  -0.000  28.289

                      1                      2                      3
                      A                      A                      A
 Frequencies --     45.2908               302.4686               312.2904
 Red. masses --     15.1346                14.8967                14.6767
 Frc consts  --      0.0183                 0.8030                 0.8433
 IR Inten    --      0.5142                 9.9486                33.5303

                      4                      5                      6
                      A                      A                      A
 Frequencies --    387.8874               731.6296               731.6672
 Red. masses --     15.0282                15.2076                14.9786
 Frc consts  --      1.3322                 4.7962                 4.7244
 IR Inten    --      0.8359                10.2655                12.0831

                      7                      8                      9
                      A                      A                      A
 Frequencies --    858.3293              1169.4680              1773.1951
 Red. masses --     14.9976                15.0157                14.8478
 Frc consts  --      6.5100                12.0996                27.5059
 IR Inten    --     25.9993                37.2775               313.2044

 - Thermochemistry -
 -------------------
 Temperature   298.150 Kelvin.  Pressure   1.00000 Atm.
 Atom     1 has atomic number  8 and mass  15.99491

 Molecular mass:    75.99089 amu.
 Principal axes and moments of inertia in atomic units:
                           1         2         3
     Eigenvalues --    94.02667 489.50671 518.82019
           X            1.00000   0.00000  -0.00004
           Y           -0.00000   1.00000   0.00000
           Z            0.00004  -0.00000   1.00000
 This molecule is an asymmetric top.
 Rotational symmetry number  1.
 Rotational temperatures (Kelvin)      0.92116     0.17694     0.16694
 Rotational constants (GHZ):          19.19393     3.68686     3.47855
 Zero-point vibrational energy      37755.5 (Joules/Mol)
                                    9.02378 (Kcal/Mol)
 Warning -- explicit consideration of   4 degrees of freedom as
           vibrations may cause significant error
 Vibrational temperatures:     65.16   435.18   449.32   558.08  1052.65
          (Kelvin)           1052.70  1234.94  1682.60  2551.23

 Zero-point correction=                           0.014380 (Hartree/Particle)
 Thermal correction to Energy=                    0.019486
 Thermal correction to Enthalpy=                  0.020430
 Thermal correction to Gibbs Free Energy=        -0.014309
 Sum of electronic and zero-point Energies=           -334.772415
 Sum of electronic and thermal Energies=              -334.767310
 Sum of electronic and thermal Enthalpies=            -334.766365
 Sum of electronic and thermal Free Energies=         -334.801104

                     E (Thermal)             CV                S
                      KCal/Mol        Cal/Mol-Kelvin    Cal/Mol-Kelvin
 Total                   12.228             15.109             73.114
 Electronic               0.000              0.000              0.000
 Translational            0.889              2.981             38.900
 Rotational               0.889              2.981             24.683
 Vibrational             10.450              9.147              9.531
 Vibration     1          0.595              1.979              5.013
 Vibration     2          0.694              1.669              1.403
 Vibration     3          0.701              1.650              1.350
 Vibration     4          0.756              1.496              1.008

 Optimization completed.
    -- Stationary point found.
 Normal termination of Gaussian 09 at Sun Oct 23 07:42:43 2022.
