 Gaussian 09, Revision D.01,
 Gaussian 09:  ES64L-G09RevD.01 24-Apr-2013

 ----------------------------------------------------------------------
 #P opt=(modredundant, calcfc, noeigentest, maxStep=5) scf=(tight, dire
 ct) integral=(grid=ultrafine, Acc2E=12) guess=read b2plypd3/def2tzvp I
 Op(2/9=2000) scf=xqc
 ----------------------------------------------------------------------

 --------------------
 Nitrosodioxaziridine
 --------------------
 Symbolic Z-matrix:
 Charge =  0 Multiplicity = 1

 SCF Done:  E(RB2PLYPD3) =  -334.407896877     A.U. after    1 cycles
 E2(B2PLYPD3) =    -0.3788985997D+00 E(B2PLYPD3) =    -0.33478679547691D+03
 E2(B2PLYPD3) =    -0.3788985997D+00 E(B2PLYPD3) =    -0.33478679547691D+03

  Exact polarizability:  46.202   0.000  23.348   0.153  -0.000  21.607
 Approx polarizability:  54.298  -0.000  35.181  -1.798  -0.000  28.289

 Optimization completed.
    -- Stationary point found.
 SCF Done:  E(RB2PLYPD3) =  -334.400475057     A.U. after   19 cycles
 E2(B2PLYPD3) =    -0.3791245608D+00 E(B2PLYPD3) =    -0.33477959961809D+03
 SCF Done:  E(RB2PLYPD3) =  -334.402795833     A.U. after   15 cycles
 E2(B2PLYPD3) =    -0.3793830584D+00 E(B2PLYPD3) =    -0.33478217889091D+03
 SCF Done:  E(RB2PLYPD3) =  -334.405321611     A.U. after   15 cycles
 E2(B2PLYPD3) =    -0.3800150002D+00 E(B2PLYPD3) =    -0.33478533661107D+03
 SCF Done:  E(RB2PLYPD3) =  -334.407674740     A.U. after   15 cycles
 E2(B2PLYPD3) =    -0.3786683532D+00 E(B2PLYPD3) =    -0.33478634309305D+03
 SCF Done:  E(RB2PLYPD3) =  -334.407300563     A.U. after   12 cycles
 E2(B2PLYPD3) =    -0.3790712850D+00 E(B2PLYPD3) =    -0.33478637184837D+03
 Optimization completed.
 SCF Done:  E(RB2PLYPD3) =  -334.399562565     A.U. after   19 cycles
 E2(B2PLYPD3) =    -0.3791247036D+00 E(B2PLYPD3) =    -0.33477868726869D+03
 SCF Done:  E(RB2PLYPD3) =  -334.404625221     A.U. after   15 cycles
 E2(B2PLYPD3) =    -0.3792280229D+00 E(B2PLYPD3) =    -0.33478385324360D+03
 SCF Done:  E(RB2PLYPD3) =  -334.406041195     A.U. after   13 cycles
 E2(B2PLYPD3) =    -0.3784636933D+00 E(B2PLYPD3) =    -0.33478450488818D+03
 SCF Done:  E(RB2PLYPD3) =  -334.405735008     A.U. after   12 cycles
 E2(B2PLYPD3) =    -0.3787852392D+00 E(B2PLYPD3) =    -0.33478452024768D+03
 E2(B2PLYPD3) =    -0.3794874485D+00 E(B2PLYPD3) =    -0.33477792590389D+03
 E2(B2PLYPD3) =    -0.3791207381D+00 E(B2PLYPD3) =    -0.33478387755028D+03
 E2(B2PLYPD3) =    -0.3786897901D+00 E(B2PLYPD3) =    -0.33478421113473D+03
 E2(B2PLYPD3) =    -0.3785644279D+00 E(B2PLYPD3) =    -0.33478423732945D+03
 E2(B2PLYPD3) =    -0.3785496675D+00 E(B2PLYPD3) =    -0.33478424334351D+03
 E2(B2PLYPD3) =    -0.3796031090D+00 E(B2PLYPD3) =    -0.33477878799350D+03
 E2(B2PLYPD3) =    -0.3809961072D+00 E(B2PLYPD3) =    -0.33478565061353D+03
 E2(B2PLYPD3) =    -0.3812897536D+00 E(B2PLYPD3) =    -0.33478592990125D+03
 E2(B2PLYPD3) =    -0.3815721919D+00 E(B2PLYPD3) =    -0.33478596986987D+03
 E2(B2PLYPD3) =    -0.3818589439D+00 E(B2PLYPD3) =    -0.33477788522959D+03
 E2(B2PLYPD3) =    -0.3798140817D+00 E(B2PLYPD3) =    -0.33478411763680D+03
 E2(B2PLYPD3) =    -0.3784700063D+00 E(B2PLYPD3) =    -0.33478430753840D+03
 E2(B2PLYPD3) =    -0.3785617517D+00 E(B2PLYPD3) =    -0.33478433353621D+03
 E2(B2PLYPD3) =    -0.3785144103D+00 E(B2PLYPD3) =    -0.33478433543586D+03
 E2(B2PLYPD3) =    -0.3788103250D+00 E(B2PLYPD3) =    -0.33477637923328D+03
 E2(B2PLYPD3) =    -0.3792069475D+00 E(B2PLYPD3) =    -0.33478392155578D+03
 E2(B2PLYPD3) =    -0.3784597323D+00 E(B2PLYPD3) =    -0.33478438670514D+03
 E2(B2PLYPD3) =    -0.3785935967D+00 E(B2PLYPD3) =    -0.33478444882032D+03
 E2(B2PLYPD3) =    -0.3788110970D+00 E(B2PLYPD3) =    -0.33478445976518D+03
 SCF Done:  E(RB2PLYPD3) =  -334.399363743     A.U. after   18 cycles
 E2(B2PLYPD3) =    -0.3796072701D+00 E(B2PLYPD3) =    -0.33477897101344D+03
 SCF Done:  E(RB2PLYPD3) =  -334.405915572     A.U. after   17 cycles
 E2(B2PLYPD3) =    -0.3802106386D+00 E(B2PLYPD3) =    -0.33478612621053D+03
 SCF Done:  E(RB2PLYPD3) =  -334.408064581     A.U. after   15 cycles
 E2(B2PLYPD3) =    -0.3782188670D+00 E(B2PLYPD3) =    -0.33478628344772D+03
 SCF Done:  E(RB2PLYPD3) =  -334.407261744     A.U. after   13 cycles
 E2(B2PLYPD3) =    -0.3791109276D+00 E(B2PLYPD3) =    -0.33478637267113D+03
 SCF Done:  E(RB2PLYPD3) =  -334.407253290     A.U. after    8 cycles
 E2(B2PLYPD3) =    -0.3791206782D+00 E(B2PLYPD3) =    -0.33478637396822D+03
    -- Stationary point found.
 SCF Done:  E(RB2PLYPD3) =  -334.400333666     A.U. after   18 cycles
 E2(B2PLYPD3) =    -0.3795606032D+00 E(B2PLYPD3) =    -0.33477989426935D+03
 SCF Done:  E(RB2PLYPD3) =  -334.406154588     A.U. after   16 cycles
 E2(B2PLYPD3) =    -0.3803693228D+00 E(B2PLYPD3) =    -0.33478652391067D+03
 SCF Done:  E(RB2PLYPD3) =  -334.407794904     A.U. after   15 cycles
 E2(B2PLYPD3) =    -0.3789869014D+00 E(B2PLYPD3) =    -0.33478678180573D+03
 SCF Done:  E(RB2PLYPD3) =  -334.407853137     A.U. after   12 cycles
 E2(B2PLYPD3) =    -0.3789404157D+00 E(B2PLYPD3) =    -0.33478679355304D+03
 SCF Done:  E(RB2PLYPD3) =  -334.407876509     A.U. after   11 cycles
 E2(B2PLYPD3) =    -0.3789188674D+00 E(B2PLYPD3) =    -0.33478679537601D+03
 Optimization completed.
    -- Stationary point found.

                         Standard orientation:
 ---------------------------------------------------------------------
 Center     Atomic      Atomic             Coordinates (Angstroms)
 Number     Number       Type             X           Y           Z
 ---------------------------------------------------------------------
      1          8           0       -1.967781    0.000078    0.121484
      2          7           0       -0.970072    0.000105   -0.461856
      3          7           0        0.319713   -0.000133    0.616157
      4          8           0        1.268659    0.734741   -0.128181
      5          8           0        1.268186   -0.734794   -0.128315
 ---------------------------------------------------------------------

 The electronic state is 1-A.
 Alpha  occ. eigenvalues --  -19.88159 -19.87777 -19.87761 -15.06031 -15.02663
 Alpha  occ. eigenvalues --   -1.43866  -1.41437  -1.04731  -0.93751  -0.80366
 Alpha  occ. eigenvalues --   -0.68010  -0.63426  -0.60834  -0.58957  -0.54598
 Alpha  occ. eigenvalues --   -0.53069  -0.48167  -0.41071  -0.33932
 Alpha virt. eigenvalues --   -0.06459   0.01680   0.05798   0.07807   0.15148
 Alpha virt. eigenvalues --    0.24486   0.30205   0.33905   0.34403   0.39824
 Alpha virt. eigenvalues --    0.42008   0.42488   0.43027   0.44258   0.45259

 Mulliken charges:
               1
     1  O   -0.120593
     2  N    0.207568
     3  N    0.113508
     4  O   -0.100286
     5  O   -0.100197
 Sum of Mulliken charges =  -0.00000

 Dipole moment (field-independent basis, Debye):
    X=             -1.0146    Y=             -0.0002    Z=             -0.0831  Tot=              1.0180
 Quadrupole moment (field-independent basis, Debye-Ang):
   XX=            -27.9295   YY=            -25.1191   ZZ=            -28.1219
   XY=              0.0000   XZ=              0.0499   YZ=              0.0000

 Normal termination of Gaussian 09 at Sun Oct 23 08:31:52 2022.
