 Gaussian 09, Revision D.01,
 Gaussian 09:  ES64L-G09RevD.01 24-Apr-2013

 ----------------------------------------------------------------------
 #P guess=read ub2plypd3/def2tzvp freq IOp(7/33=1) scf=(tight, direct)
 integral=(grid=ultrafine, Acc2E=12) IOp(2/9=2000) scf=xqc
 ----------------------------------------------------------------------

 ---
 TS0
 ---
 Symbolic Z-matrix:
 Charge =  0 Multiplicity = 2

                         Standard orientation:
 ---------------------------------------------------------------------
 Center     Atomic      Atomic             Coordinates (Angstroms)
 Number     Number       Type             X           Y           Z
 ---------------------------------------------------------------------
      1          7           0       -1.311872   -0.000000   -0.136528
      2          1           0       -1.476313   -0.806973    0.469757
      3          1           0       -1.476311    0.806976    0.469752
      4          6           0        1.257954   -0.000000    0.013026
      5          1           0       -0.039032   -0.000002   -0.177303
      6          1           0        1.590263    0.906395   -0.482579
      7          1           0        1.446488   -0.000143    1.080745
      8          1           0        1.590291   -0.906250   -0.482829
 ---------------------------------------------------------------------

 SCF Done:  E(UB2PLYPD3) =  -96.1877059652     A.U. after    1 cycles
 E2(B2PLYPD3) =    -0.1297193939D+00 E(B2PLYPD3) =    -0.96317425359078D+02
 E2(B2PLYPD3) =    -0.1297193939D+00 E(B2PLYPD3) =    -0.96317425359078D+02

 The electronic state is 2-A.
 Alpha  occ. eigenvalues --  -14.84144 -10.61601  -0.98212  -0.80732  -0.53685
 Alpha  occ. eigenvalues --   -0.52712  -0.47906  -0.47725  -0.37616  -0.29458
 Alpha virt. eigenvalues --    0.06738   0.11720   0.14429   0.16281   0.16582
 Alpha virt. eigenvalues --    0.22276   0.24780   0.25493   0.33388   0.36957
 Alpha virt. eigenvalues --    0.39561   0.41981   0.47047   0.52860   0.54192

  Beta  occ. eigenvalues --  -14.82474 -10.60437  -0.93289  -0.77323  -0.52623
  Beta  occ. eigenvalues --   -0.47681  -0.46993  -0.46021  -0.33733
  Beta virt. eigenvalues --   -0.02523   0.07206   0.12549   0.14704   0.16605
  Beta virt. eigenvalues --    0.16909   0.23150   0.25128   0.25513   0.34214
  Beta virt. eigenvalues --    0.36986   0.41611   0.44322   0.49799   0.53992

 Mulliken charges and spin densities:
               1          2
     1  N   -0.588435   0.620361
     2  H    0.223398  -0.017074
     3  H    0.223398  -0.017074
     4  C   -0.515438   0.566797
     5  H    0.274386  -0.113651
     6  H    0.130348  -0.011958
     7  H    0.121993  -0.015445
     8  H    0.130350  -0.011957
 Sum of Mulliken charges =  -0.00000   1.00000

 Dipole moment (field-independent basis, Debye):
    X=              0.5699    Y=              0.0000    Z=              1.6382  Tot=              1.7345
 Quadrupole moment (field-independent basis, Debye-Ang):
   XX=            -16.4869   YY=            -13.7739   ZZ=            -15.9894
   XY=             -0.0000   XZ=             -3.0210   YZ=              0.0000

  Exact polarizability:  51.647   0.000  24.868   0.287   0.000  23.612
 Approx polarizability:  41.417   0.000  26.769   0.119   0.000  24.978

 ******    1 imaginary frequencies (negative Signs) ******

                      1                      2                      3
                      A                      A                      A
 Frequencies --  -1791.1825                41.1174               378.7952
 Red. masses --      1.0742                 1.0275                 1.0223
 Frc consts  --      2.0306                 0.0010                 0.0864
 IR Inten    --    549.8232                32.1853                 2.4629

                      4                      5                      6
                      A                      A                      A
 Frequencies --    383.5046               573.7342               795.4561
 Red. masses --      1.1572                 2.6984                 1.1100
 Frc consts  --      0.1003                 0.5233                 0.4138
 IR Inten    --      8.9241                 4.7527                 3.4808

                      7                      8                      9
                      A                      A                      A
 Frequencies --    870.5356              1183.1625              1353.9480
 Red. masses --      1.2624                 1.1671                 1.1081
 Frc consts  --      0.5637                 0.9626                 1.1968
 IR Inten    --    103.0634                 8.9031               110.5881

                     10                     11                     12
                      A                      A                      A
 Frequencies --   1427.3515              1454.7255              1497.5642
 Red. masses --      1.1043                 1.0583                 1.0218
 Frc consts  --      1.3256                 1.3196                 1.3502
 IR Inten    --     12.1783                 4.5533                 2.2136

                     13                     14                     15
                      A                      A                      A
 Frequencies --   1571.9055              3084.9731              3214.2690
 Red. masses --      1.0701                 1.0205                 1.1091
 Frc consts  --      1.5579                 5.7223                 6.7512
 IR Inten    --     29.5334                 6.1513                 9.0867

                     16                     17                     18
                      A                      A                      A
 Frequencies --   3218.6151              3403.4795              3499.7712
 Red. masses --      1.1092                 1.0488                 1.0902
 Frc consts  --      6.7704                 7.1581                 7.8677
 IR Inten    --     10.2451                 9.7131                 0.0006

 - Thermochemistry -
 -------------------
 Temperature   298.150 Kelvin.  Pressure   1.00000 Atm.
 Atom     1 has atomic number  7 and mass  14.00307

 Molecular mass:    32.05002 amu.
 Principal axes and moments of inertia in atomic units:
                           1         2         3
     Eigenvalues --    18.92214 203.44269 205.72056
           X            0.99969  -0.00000  -0.02482
           Y            0.00000   1.00000  -0.00000
           Z            0.02482   0.00000   0.99969
 This molecule is an asymmetric top.
 Rotational symmetry number  1.
 Rotational temperatures (Kelvin)      4.57738     0.42574     0.42103
 Rotational constants (GHZ):          95.37725     8.87101     8.77278
    1 imaginary frequencies ignored.
 Zero-point vibrational energy     167195.5 (Joules/Mol)
                                   39.96069 (Kcal/Mol)
 Warning -- explicit consideration of   4 degrees of freedom as
           vibrations may cause significant error
 Vibrational temperatures:     59.16   545.00   551.78   825.47  1144.48
          (Kelvin)           1252.51  1702.30  1948.03  2053.64  2093.02
                             2154.66  2261.62  4438.58  4624.61  4630.86
                             4896.84  5035.38

 Zero-point correction=                           0.063681 (Hartree/Particle)
 Thermal correction to Energy=                    0.068387
 Thermal correction to Enthalpy=                  0.069331
 Thermal correction to Gibbs Free Energy=         0.037375
 Sum of electronic and zero-point Energies=            -96.253744
 Sum of electronic and thermal Energies=               -96.249038
 Sum of electronic and thermal Enthalpies=             -96.248094
 Sum of electronic and thermal Free Energies=          -96.280050

                     E (Thermal)             CV                S
                      KCal/Mol        Cal/Mol-Kelvin    Cal/Mol-Kelvin
 Total                   42.914             13.909             67.258
 Electronic               0.000              0.000              1.377
 Translational            0.889              2.981             36.326
 Rotational               0.889              2.981             21.298
 Vibrational             41.136              7.947              8.256
 Vibration     1          0.594              1.981              5.205
 Vibration     2          0.749              1.515              1.044
 Vibration     3          0.753              1.505              1.025
 Vibration     4          0.930              1.088              0.497

 Optimization completed.
    -- Stationary point found.
 Normal termination of Gaussian 09 at Sat Nov 12 22:42:30 2022.
