 Gaussian 09, Revision D.01,
 Gaussian 09:  ES64L-G09RevD.01 24-Apr-2013

 ----------------------------------------------------------------------
 #P guess=read b2plypd3/def2tzvp freq IOp(7/33=1) scf=(tight, direct) i
 ntegral=(grid=ultrafine, Acc2E=12) IOp(2/9=2000) scf=xqc
 ----------------------------------------------------------------------

 ----
 C2H6
 ----
 Symbolic Z-matrix:
 Charge =  0 Multiplicity = 1

                         Standard orientation:
 ---------------------------------------------------------------------
 Center     Atomic      Atomic             Coordinates (Angstroms)
 Number     Number       Type             X           Y           Z
 ---------------------------------------------------------------------
      1          6           0        0.762121    0.025040    0.005096
      2          6           0       -0.762121   -0.025040   -0.005096
      3          1           0        1.191525   -0.922702   -0.321312
      4          1           0        1.137076    0.803413   -0.660251
      5          1           0        1.144672    0.233405    1.004787
      6          1           0       -1.144672   -0.233405   -1.004787
      7          1           0       -1.191525    0.922702    0.321312
      8          1           0       -1.137076   -0.803413    0.660251
 ---------------------------------------------------------------------

 SCF Done:  E(RB2PLYPD3) =  -79.6540484152     A.U. after    2 cycles
 E2(B2PLYPD3) =    -0.1148786487D+00 E(B2PLYPD3) =    -0.79768927063820D+02
 E2(B2PLYPD3) =    -0.1148786487D+00 E(B2PLYPD3) =    -0.79768927063820D+02

 The electronic state is 1-AG.
 Alpha  occ. eigenvalues --  -10.59793 -10.59754  -0.86430  -0.71081  -0.50385
 Alpha  occ. eigenvalues --   -0.50385  -0.42870  -0.40411  -0.40411
 Alpha virt. eigenvalues --    0.08138   0.12007   0.15526   0.15526   0.16872
 Alpha virt. eigenvalues --    0.16872   0.24259   0.24282   0.28249   0.28249
 Alpha virt. eigenvalues --    0.29452   0.29452   0.45017   0.47464   0.50196

 Mulliken charges:
               1
     1  C   -0.299092
     2  C   -0.299092
     3  H    0.099697
     4  H    0.099697
     5  H    0.099697
     6  H    0.099697
     7  H    0.099697
     8  H    0.099697
 Sum of Mulliken charges =   0.00000

 Dipole moment (field-independent basis, Debye):
    X=             -0.0000    Y=              0.0000    Z=              0.0000  Tot=              0.0000
 Quadrupole moment (field-independent basis, Debye-Ang):
   XX=            -15.7456   YY=            -14.9707   ZZ=            -14.9699
   XY=             -0.0255   XZ=             -0.0052   YZ=             -0.0002

  Exact polarizability:  28.713   0.097  25.749   0.020   0.001  25.746
 Approx polarizability:  27.739  -0.013  28.134  -0.003  -0.000  28.134

                      1                      2                      3
                     AU                     AU                     AU
 Frequencies --    312.2162               831.6261               831.6524
 Red. masses --      1.0078                 1.0580                 1.0580
 Frc consts  --      0.0579                 0.4311                 0.4311
 IR Inten    --      0.0000                 3.3896                 3.3894

                      4                      5                      6
                     AG                     AG                     AG
 Frequencies --   1011.6205              1233.0424              1233.0766
 Red. masses --      3.2836                 1.4690                 1.4690
 Frc consts  --      1.9799                 1.3159                 1.3160
 IR Inten    --      0.0000                 0.0000                 0.0000

                      7                      8                      9
                     AU                     AG                     AG
 Frequencies --   1421.9750              1435.5693              1518.1418
 Red. masses --      1.1985                 1.2523                 1.0179
 Frc consts  --      1.4278                 1.5206                 1.3822
 IR Inten    --      1.3701                 0.0000                 0.0000

                     10                     11                     12
                     AG                     AU                     AU
 Frequencies --   1518.1555              1520.4064              1520.4318
 Red. masses --      1.0179                 1.0620                 1.0620
 Frc consts  --      1.3822                 1.4464                 1.4464
 IR Inten    --      0.0000                 9.9714                 9.9718

                     13                     14                     15
                     AG                     AU                     AG
 Frequencies --   3054.1572              3054.8910              3107.6165
 Red. masses --      1.0365                 1.0339                 1.1012
 Frc consts  --      5.6967                 5.6850                 6.2656
 IR Inten    --      0.0000                57.2190                 0.0000

                     16                     17                     18
                     AG                     AU                     AU
 Frequencies --   3107.6308              3131.8982              3131.9116
 Red. masses --      1.1012                 1.1026                 1.1026
 Frc consts  --      6.2657                 6.3722                 6.3722
 IR Inten    --      0.0000                60.8358                60.8345

 - Thermochemistry -
 -------------------
 Temperature   298.150 Kelvin.  Pressure   1.00000 Atm.
 Atom     1 has atomic number  6 and mass  12.00000

 Molecular mass:    30.04695 amu.
 Principal axes and moments of inertia in atomic units:
                           1         2         3
     Eigenvalues --    22.29455  89.96078  89.96079
           X            0.99944   0.00655  -0.03286
           Y            0.03284  -0.38715   0.92143
           Z            0.00668   0.92199   0.38714
 This molecule is an asymmetric top.
 Rotational symmetry number  1.
 Rotational temperatures (Kelvin)      3.88498     0.96280     0.96280
 Rotational constants (GHZ):          80.94990    20.06142    20.06142
 Zero-point vibrational energy     197240.4 (Joules/Mol)
                                   47.14159 (Kcal/Mol)
 Warning -- explicit consideration of   1 degrees of freedom as
           vibrations may cause significant error
 Vibrational temperatures:    449.21  1196.52  1196.56  1455.49  1774.07
          (Kelvin)           1774.12  2045.90  2065.46  2184.26  2184.28
                             2187.52  2187.56  4394.25  4395.30  4471.16
                             4471.18  4506.10  4506.12

 Zero-point correction=                           0.075125 (Hartree/Particle)
 Thermal correction to Energy=                    0.078598
 Thermal correction to Enthalpy=                  0.079542
 Thermal correction to Gibbs Free Energy=         0.052025
 Sum of electronic and zero-point Energies=            -79.693802
 Sum of electronic and thermal Energies=               -79.690329
 Sum of electronic and thermal Enthalpies=             -79.689385
 Sum of electronic and thermal Free Energies=          -79.716903

                     E (Thermal)             CV                S
                      KCal/Mol        Cal/Mol-Kelvin    Cal/Mol-Kelvin
 Total                   49.321             10.018             57.916
 Electronic               0.000              0.000              0.000
 Translational            0.889              2.981             36.134
 Rotational               0.889              2.981             19.829
 Vibrational             47.544              4.056              1.953
 Vibration     1          0.701              1.650              1.351

 Optimization completed.
    -- Stationary point found.
 Normal termination of Gaussian 09 at Sat Nov 12 22:09:09 2022.
