 Gaussian 16, Revision A.03,
 Gaussian 16:  ES64L-G16RevA.03 25-Dec-2016

 ---------------------------------
 # opt=(addred) b3lyp/cbsb7 nosymm
 ---------------------------------

 ---------------------------
 Toluene Rot1 Hindered Rotor
 ---------------------------
 Symbolic Z-matrix:
 Charge =  0 Multiplicity = 1

 SCF Done:  E(RB3LYP) =  -271.636042406     A.U. after   13 cycles
 Optimization completed.
    -- Stationary point found.
 SCF Done:  E(RB3LYP) =  -271.634973182     A.U. after   10 cycles
 SCF Done:  E(RB3LYP) =  -271.635930365     A.U. after   10 cycles
 SCF Done:  E(RB3LYP) =  -271.636036975     A.U. after    9 cycles
 SCF Done:  E(RB3LYP) =  -271.636038040     A.U. after    7 cycles
 Optimization completed.
 SCF Done:  E(RB3LYP) =  -271.634960028     A.U. after   10 cycles
 SCF Done:  E(RB3LYP) =  -271.636009734     A.U. after   10 cycles
 SCF Done:  E(RB3LYP) =  -271.636028222     A.U. after    9 cycles
 SCF Done:  E(RB3LYP) =  -271.636028747     A.U. after    7 cycles
 SCF Done:  E(RB3LYP) =  -271.634949428     A.U. after   10 cycles
 SCF Done:  E(RB3LYP) =  -271.636023723     A.U. after    8 cycles
 SCF Done:  E(RB3LYP) =  -271.634959546     A.U. after   10 cycles
 SCF Done:  E(RB3LYP) =  -271.636014067     A.U. after   10 cycles
 SCF Done:  E(RB3LYP) =  -271.636028235     A.U. after    8 cycles
 SCF Done:  E(RB3LYP) =  -271.634972461     A.U. after   10 cycles
 SCF Done:  E(RB3LYP) =  -271.636025509     A.U. after   10 cycles
 SCF Done:  E(RB3LYP) =  -271.636037825     A.U. after    8 cycles
    -- Stationary point found.
 SCF Done:  E(RB3LYP) =  -271.634979726     A.U. after   10 cycles
 SCF Done:  E(RB3LYP) =  -271.636030212     A.U. after   11 cycles
 SCF Done:  E(RB3LYP) =  -271.636043539     A.U. after    8 cycles
 Optimization completed.
    -- Stationary point found.

                          Input orientation:
 ---------------------------------------------------------------------
 Center     Atomic      Atomic             Coordinates (Angstroms)
 Number     Number       Type             X           Y           Z
 ---------------------------------------------------------------------
      1          6           0        0.003958    0.719857    0.012272
      2          6           0       -0.781768   -0.009548    0.910677
      3          6           0       -0.779256   -1.402489    0.899877
      4          6           0        0.014394   -2.094042   -0.012578
      5          6           0        0.804822   -1.380497   -0.910808
      6          6           0        0.798475    0.012412   -0.895896
      7          6           0       -0.025264    2.229886    0.004694
      8          1           0       -1.400862    0.519763    1.628374
      9          1           0       -1.394643   -1.947457    1.607408
     10          1           0        0.020448   -3.178171   -0.020832
     11          1           0        1.430502   -1.908503   -1.622186
     12          1           0        1.420990    0.558793   -1.597653
     13          1           0       -0.802318    2.604302   -0.670879
     14          1           0       -0.237058    2.630171    0.998995
     15          1           0        0.927519    2.645482   -0.331465
 ---------------------------------------------------------------------

 Alpha  occ. eigenvalues --  -10.18118 -10.17130 -10.17124 -10.16918 -10.16880
 Alpha  occ. eigenvalues --  -10.16877 -10.16775  -0.85703  -0.77240  -0.74475
 Alpha  occ. eigenvalues --   -0.68652  -0.60548  -0.58480  -0.51253  -0.46158
 Alpha  occ. eigenvalues --   -0.45491  -0.42230  -0.42063  -0.40981  -0.38744
 Alpha  occ. eigenvalues --   -0.35673  -0.34364  -0.34057  -0.25336  -0.24459
 Alpha virt. eigenvalues --   -0.00775  -0.00569   0.04543   0.06214   0.07503
 Alpha virt. eigenvalues --    0.09869   0.10865   0.11029   0.13654   0.13857
 Alpha virt. eigenvalues --    0.16611   0.20540   0.26999   0.27488   0.28470

 Mulliken charges:
               1
     1  C   -0.102459
     2  C   -0.075584
     3  C   -0.092962
     4  C   -0.093649
     5  C   -0.093009
     6  C   -0.075588
     7  C   -0.258949
     8  H    0.083201
     9  H    0.091761
    10  H    0.091710
    11  H    0.091748
    12  H    0.083210
    13  H    0.126433
    14  H    0.112053
    15  H    0.112082
 Sum of Mulliken charges =  -0.00000

 Dipole moment (field-independent basis, Debye):
    X=             -0.0298    Y=              0.3495    Z=             -0.0220  Tot=              0.3515
 Quadrupole moment (field-independent basis, Debye-Ang):
   XX=            -42.8351   YY=            -38.5154   ZZ=            -41.8782
   XY=             -0.0497   XZ=             -3.5703   YZ=             -0.0402

 Normal termination of Gaussian 16 at Thu Mar  9 13:57:20 2017.
