User input:
--------------------------------------------------------------
$rem
XC_GRID 000075000434
JOBTYPE opt
EXCHANGE M08SO
BASIS gen
GUI=2
UNRESTRICTED TRUE
CORRELATION NONE
$end

$comment
c5h11o-2
$end

$molecule
READ c5h11o-5MG3S.out
$end

$basis
H  0
S  3 1.00
3.386500000000E+01 2.549380000000E-02
5.094790000000E+00 1.903730000000E-01
1.158790000000E+00 8.521610000000E-01
S  1 1.00
3.258400000000E-01 1.000000000000E+00
S  1 1.00
1.027410000000E-01 1.000000000000E+00
S  1 1.00
3.600000000000E-02 1.000000000000E+00
P  1 1.00
1.500000000000E+00 1.000000000000E+00
P  1 1.00
3.750000000000E-01 1.000000000000E+00
****
C 0
S  6 1.00
4.563240000000E+03 1.966650000000E-03
6.820240000000E+02 1.523060000000E-02
1.549730000000E+02 7.612690000000E-02
4.445530000000E+01 2.608010000000E-01
1.302900000000E+01 6.164620000000E-01
1.827730000000E+00 2.210060000000E-01
S  3 1.00
2.096420000000E+01 1.146600000000E-01
4.803310000000E+00 9.199990000000E-01
1.459330000000E+00 -3.030680000000E-03
S  1 1.00
4.834560000000E-01 1.000000000000E+00
S  1 1.00
1.455850000000E-01 1.000000000000E+00
S  1 1.00
4.380000000000E-02 1.000000000000E+00
P  3 1.00
2.096420000000E+01 4.024870000000E-02
4.803310000000E+00 2.375940000000E-01
1.459330000000E+00 8.158540000000E-01
P  1 1.00
4.834560000000E-01 1.000000000000E+00
P  1 1.00
1.455850000000E-01 1.000000000000E+00
P  1 1.00
4.380000000000E-02 1.000000000000E+00
D  1 1.00
1.252000000000E+00 1.000000000000E+00
D  1 1.00
3.130000000000E-01 1.000000000000E+00
F  1 1.00
8.000000000000E-01 1.000000000000E+00
****
O  0
S  6 1.00
8.588500000000E+03 1.895150000000E-03
1.297230000000E+03 1.438590000000E-02
2.992960000000E+02 7.073200000000E-02
8.737710000000E+01 2.400010000000E-01
2.567890000000E+01 5.947970000000E-01
3.740040000000E+00 2.808020000000E-01
S  3 1.00
4.211750000000E+01 1.138890000000E-01
9.628370000000E+00 9.208110000000E-01
2.853320000000E+00 -3.274470000000E-03
S  1 1.00
9.056610000000E-01 1.000000000000E+00
S  1 1.00
2.556110000000E-01 1.000000000000E+00
S  1 1.00
8.450000000000E-02 1.000000000000E+00
P  3 1.00
4.211750000000E+01 3.651140000000E-02
9.628370000000E+00 2.371530000000E-01
2.853320000000E+00 8.197020000000E-01
P  1 1.00
9.056610000000E-01 1.000000000000E+00
P  1 1.00
2.556110000000E-01 1.000000000000E+00
P  1 1.00
8.450000000000E-02 1.000000000000E+00
D  1 1.00
2.584000000000E+00 1.000000000000E+00
D  1 1.00
6.460000000000E-01 1.000000000000E+00
F  1 1.00
1.400000000000E+00 1.000000000000E+00
****
$end

--------------------------------------------------------------

   20    -272.2010645730      6.96E-09 Convergence criterion met
 Total energy in the final basis set = -272.2010645730
   11    -272.2014312288      5.47E-09 Convergence criterion met
 Total energy in the final basis set = -272.2014312288
   10    -272.2014794449      8.65E-09 Convergence criterion met
 Total energy in the final basis set = -272.2014794449
   10    -272.2015004393      7.65E-09 Convergence criterion met
 Total energy in the final basis set = -272.2015004393
   11    -272.2015425004      3.62E-09 Convergence criterion met
 Total energy in the final basis set = -272.2015425004
   11    -272.2016036005      8.48E-09 Convergence criterion met
 Total energy in the final basis set = -272.2016036005
   11    -272.2016671660      9.35E-09 Convergence criterion met
 Total energy in the final basis set = -272.2016671660
   11    -272.2017328319      9.30E-09 Convergence criterion met
 **  OPTIMIZATION CONVERGED  **
 Total job time:  34288.03s(wall), 34255.77s(cpu)
        *  Thank you very much for using Q-Chem.  Have a nice day.  *

User input:
--------------------------------------------------------------

$molecule
READ
$end

$rem
JOBTYPE Freq
XC_GRID 000075000434
EXCHANGE M08SO
BASIS gen
GUI=2
SCF_GUESS READ
$end

$basis
H  0
S  3 1.00
3.386500000000E+01 2.549380000000E-02
5.094790000000E+00 1.903730000000E-01
1.158790000000E+00 8.521610000000E-01
S  1 1.00
3.258400000000E-01 1.000000000000E+00
S  1 1.00
1.027410000000E-01 1.000000000000E+00
S  1 1.00
3.600000000000E-02 1.000000000000E+00
P  1 1.00
1.500000000000E+00 1.000000000000E+00
P  1 1.00
3.750000000000E-01 1.000000000000E+00
****
C 0
S  6 1.00
4.563240000000E+03 1.966650000000E-03
6.820240000000E+02 1.523060000000E-02
1.549730000000E+02 7.612690000000E-02
4.445530000000E+01 2.608010000000E-01
1.302900000000E+01 6.164620000000E-01
1.827730000000E+00 2.210060000000E-01
S  3 1.00
2.096420000000E+01 1.146600000000E-01
4.803310000000E+00 9.199990000000E-01
1.459330000000E+00 -3.030680000000E-03
S  1 1.00
4.834560000000E-01 1.000000000000E+00
S  1 1.00
1.455850000000E-01 1.000000000000E+00
S  1 1.00
4.380000000000E-02 1.000000000000E+00
P  3 1.00
2.096420000000E+01 4.024870000000E-02
4.803310000000E+00 2.375940000000E-01
1.459330000000E+00 8.158540000000E-01
P  1 1.00
4.834560000000E-01 1.000000000000E+00
P  1 1.00
1.455850000000E-01 1.000000000000E+00
P  1 1.00
4.380000000000E-02 1.000000000000E+00
D  1 1.00
1.252000000000E+00 1.000000000000E+00
D  1 1.00
3.130000000000E-01 1.000000000000E+00
F  1 1.00
8.000000000000E-01 1.000000000000E+00
****
O  0
S  6 1.00
8.588500000000E+03 1.895150000000E-03
1.297230000000E+03 1.438590000000E-02
2.992960000000E+02 7.073200000000E-02
8.737710000000E+01 2.400010000000E-01
2.567890000000E+01 5.947970000000E-01
3.740040000000E+00 2.808020000000E-01
S  3 1.00
4.211750000000E+01 1.138890000000E-01
9.628370000000E+00 9.208110000000E-01
2.853320000000E+00 -3.274470000000E-03
S  1 1.00
9.056610000000E-01 1.000000000000E+00
S  1 1.00
2.556110000000E-01 1.000000000000E+00
S  1 1.00
8.450000000000E-02 1.000000000000E+00
P  3 1.00
4.211750000000E+01 3.651140000000E-02
9.628370000000E+00 2.371530000000E-01
2.853320000000E+00 8.197020000000E-01
P  1 1.00
9.056610000000E-01 1.000000000000E+00
P  1 1.00
2.556110000000E-01 1.000000000000E+00
P  1 1.00
8.450000000000E-02 1.000000000000E+00
D  1 1.00
2.584000000000E+00 1.000000000000E+00
D  1 1.00
6.460000000000E-01 1.000000000000E+00
F  1 1.00
1.400000000000E+00 1.000000000000E+00
****
--------------------------------------------------------------

 Total energy in the final basis set = -272.2021103875
    8    -272.2021103460      3.94E-09 Convergence criterion met
 Total energy in the final basis set = -272.2021103460
    7    -272.2021113927      8.96E-09 Convergence criterion met
 Total energy in the final basis set = -272.2021113927
    7    -272.2021113930      6.94E-09 Convergence criterion met
 Total energy in the final basis set = -272.2021113930
    7    -272.2021114155      5.51E-09 Convergence criterion met
 Total energy in the final basis set = -272.2021114155
    7    -272.2021114761      8.95E-09 Convergence criterion met
 Total energy in the final basis set = -272.2021114761
    7    -272.2021105636      1.00E-08 Convergence criterion met
 Total energy in the final basis set = -272.2021105636
    8    -272.2021104825      4.10E-09 Convergence criterion met
 Total energy in the final basis set = -272.2021104825

                    Orbital Energies (a.u.)
 --------------------------------------------------------------

 Alpha MOs
 -- Occupied --
-19.564 -10.543 -10.513 -10.508 -10.497 -10.491  -1.136  -0.922
 -0.824  -0.776  -0.719  -0.651  -0.592  -0.555  -0.538  -0.513
 -0.497  -0.477  -0.449  -0.430  -0.424  -0.407  -0.394  -0.356
 -0.274

 Beta MOs
 -- Occupied --
-19.564 -10.543 -10.514 -10.496 -10.491 -10.491  -1.136  -0.918
 -0.821  -0.765  -0.712  -0.642  -0.591  -0.551  -0.533  -0.508
 -0.496  -0.476  -0.448  -0.429  -0.416  -0.404  -0.394  -0.356

          Ground-State Mulliken Net Atomic Charges

     Atom                 Charge (a.u.)    Spin (a.u.)
  --------------------------------------------------------
      1 C                     0.269060      -0.123001
      2 H                     0.244454       0.072504
      3 C                    -0.562170       1.103817
      4 H                     0.183341      -0.050626
      5 H                     0.206917      -0.048547
      6 C                    -0.808643       0.006948
      7 H                     0.196340       0.002090
      8 H                     0.191236       0.002400
      9 H                     0.225527       0.004576
     10 C                    -0.553612       0.028150
     11 H                     0.231791       0.000804
     12 H                     0.248880       0.002369
     13 C                    -0.460152      -0.002479
     14 H                     0.229382       0.000204
     15 H                     0.219962       0.001005
     16 O                    -0.341567      -0.000324
     17 H                     0.279252       0.000110
  --------------------------------------------------------
  Sum of atomic charges =     0.000000

                    Cartesian Multipole Moments
 -----------------------------------------------------------------
    Charge (ESU x 10^10)
                 0.0000
    Dipole Moment (Debye)
         X      -1.2814      Y      -0.4790      Z       0.8780
       Tot       1.6255
    Quadrupole Moments (Debye-Ang)
        XX     -46.2546     XY      -0.2662     YY     -40.1925
        XZ       4.0172     YZ       0.5629     ZZ     -38.5880
    Octapole Moments (Debye-Ang^2)
       XXX     -11.2359    XXY      -2.9888    XYY       4.2706
       YYY       1.8463    XXZ      11.9092    XYZ       1.4393
       YYZ      -0.0060    XZZ      13.0819    YZZ      -0.8484
       ZZZ       1.4598
    Hexadecapole Moments (Debye-Ang^3)
      XXXX    -829.0145   XXXY       8.7869   XXYY    -174.5693
      XYYY      -1.3819   YYYY    -237.3819   XXXZ      39.9125
      XXYZ       7.3210   XYYZ       1.4496   YYYZ       0.9477
      XXZZ    -134.2526   XYZZ       5.7388   YYZZ     -58.7206

       Standard Nuclear Orientation (Angstroms)
    I     Atom         X            Y            Z
 ----------------------------------------------------
    1      C      -1.076792     0.068647    -0.326008
    2      H      -1.010401     0.005115    -1.432374
    3      C      -2.136749     1.058701     0.030691
    4      H      -1.907884     2.120942     0.090786
    5      H      -3.176392     0.751477     0.124447
    6      C      -1.435296    -1.331756     0.196862
    7      H      -0.747011    -2.097575    -0.180605
    8      H      -2.450227    -1.612495    -0.112285
    9      H      -1.399836    -1.347044     1.295429
   10      C       0.298088     0.542786     0.178801
   11      H       0.493001     1.561252    -0.188067
   12      H       0.273781     0.595249     1.280728
   13      C       1.451932    -0.351388    -0.267926
   14      H       1.438408    -0.457363    -1.361548
   15      H       1.352054    -1.361707     0.161111
   16      O       2.717628     0.201494     0.054836
   17      H       2.786383     0.308255     1.009162
 ----------------------------------------------------

 Frequency:        72.50                 107.52                 144.86
 Force Cnst:      0.0058                 0.0172                 0.0129
 Red. Mass:       1.8875                 2.5286                 1.0401
 IR Intens:        0.000                  0.000                  0.000
 Frequency:       181.28                 232.88                 279.25
 Force Cnst:      0.0533                 0.0364                 0.0526
 Red. Mass:       2.7526                 1.1406                 1.1452
 IR Intens:        0.000                  0.000                  0.000
 Frequency:       326.05                 372.81                 418.69
 Force Cnst:      0.1606                 0.1962                 0.1964
 Red. Mass:       2.5644                 2.3961                 1.9011
 IR Intens:        0.000                  0.000                  0.000
 Frequency:       459.50                 558.63                 767.75
 Force Cnst:      0.3532                 0.2921                 0.4043
 Red. Mass:       2.8396                 1.5889                 1.1642
 IR Intens:        0.000                  0.000                  0.000
 Frequency:       854.07                 913.00                 947.79
 Force Cnst:      1.0096                 0.6966                 0.6567
 Red. Mass:       2.3492                 1.4184                 1.2407
 IR Intens:        0.000                  0.000                  0.000
 Frequency:       979.42                1034.36                1068.96
 Force Cnst:      0.9605                 1.5312                 1.2192
 Red. Mass:       1.6994                 2.4290                 1.8110
 IR Intens:        0.000                  0.000                  0.000
 Frequency:      1105.76                1134.12                1163.38
 Force Cnst:      1.9175                 1.0923                 1.6170
 Red. Mass:       2.6617                 1.4414                 2.0277
 IR Intens:        0.000                  0.000                  0.000
 Frequency:      1199.55                1253.15                1286.16
 Force Cnst:      1.4559                 1.1791                 1.2663
 Red. Mass:       1.7173                 1.2744                 1.2992
 IR Intens:        0.000                  0.000                  0.000
 Frequency:      1325.70                1331.21                1365.07
 Force Cnst:      1.6277                 1.3842                 1.4662
 Red. Mass:       1.5719                 1.3257                 1.3355
 IR Intens:        0.000                  0.000                  0.000
 Frequency:      1388.78                1406.28                1442.28
 Force Cnst:      1.4542                 1.6988                 1.4578
 Red. Mass:       1.2797                 1.4580                 1.1894
 IR Intens:        0.000                  0.000                  0.000
 Frequency:      1462.38                1474.48                1482.06
 Force Cnst:      1.3849                 1.3665                 1.3592
 Red. Mass:       1.0991                 1.0668                 1.0503
 IR Intens:        0.000                  0.000                  0.000
 Frequency:      1496.07                2876.24                2954.05
 Force Cnst:      1.4364                 5.2584                 5.4678
 Red. Mass:       1.0892                 1.0788                 1.0635
 IR Intens:        0.000                  0.000                  0.000
 Frequency:      2969.02                2978.59                3005.23
 Force Cnst:      5.5329                 5.4201                 5.8195
 Red. Mass:       1.0653                 1.0369                 1.0936
 IR Intens:        0.000                  0.000                  0.000
 Frequency:      3030.53                3047.04                3058.98
 Force Cnst:      5.9685                 6.0242                 6.0731
 Red. Mass:       1.1030                 1.1013                 1.1016
 IR Intens:        0.000                  0.000                  0.000
 Frequency:      3125.92                3231.64                3892.36
 Force Cnst:      6.0552                 6.8821                 9.5196
 Red. Mass:       1.0518                 1.1185                 1.0665
 IR Intens:        0.000                  0.000                  0.000

 STANDARD THERMODYNAMIC QUANTITIES AT   298.15 K  AND     1.00 ATM

   This Molecule has  0 Imaginary Frequencies
   Zero point vibrational energy:       93.216 kcal/mol

   Atom    1 Element C  Has Mass   12.00000
   Atom    2 Element H  Has Mass    1.00783
   Atom    3 Element C  Has Mass   12.00000
   Atom    4 Element H  Has Mass    1.00783
   Atom    5 Element H  Has Mass    1.00783
   Atom    6 Element C  Has Mass   12.00000
   Atom    7 Element H  Has Mass    1.00783
   Atom    8 Element H  Has Mass    1.00783
   Atom    9 Element H  Has Mass    1.00783
   Atom   10 Element C  Has Mass   12.00000
   Atom   11 Element H  Has Mass    1.00783
   Atom   12 Element H  Has Mass    1.00783
   Atom   13 Element C  Has Mass   12.00000
   Atom   14 Element H  Has Mass    1.00783
   Atom   15 Element H  Has Mass    1.00783
   Atom   16 Element O  Has Mass   15.99491
   Atom   17 Element H  Has Mass    1.00783
   Molecular Mass:    87.081040 amu
   Principal axes and moments of inertia in atomic units:
                             1           2           3
    Eigenvalues --      253.11633  1016.71082  1187.87834
          X               0.99999     0.00154     0.00293
          Y              -0.00156     0.99998     0.00550
          Z              -0.00292    -0.00551     0.99998
   Rotational Symmetry Number is   1
   The Molecule is an Asymmetric Top
   Translational Enthalpy:        0.889 kcal/mol
   Rotational Enthalpy:           0.889 kcal/mol
   Vibrational Enthalpy:         96.789 kcal/mol
   gas constant (RT):             0.592 kcal/mol
   Translational Entropy:        39.306  cal/mol.K
   Rotational Entropy:           27.216  cal/mol.K
   Vibrational Entropy:          21.728  cal/mol.K

   Total Enthalpy:               99.159 kcal/mol
   Total Entropy:                88.249  cal/mol.K

 Total job time:  125454.70s(wall), 125363.94s(cpu)
        *  Thank you very much for using Q-Chem.  Have a nice day.  *
