 Gaussian 09, Revision D.01,
 Gaussian 09:  ES64L-G09RevD.01 24-Apr-2013

 ----------------------------------------------------------------------
 #P guess=read b2plypd3/def2tzvp freq IOp(7/33=1) scf=(tight, direct) i
 ntegral=(grid=ultrafine, Acc2E=12) IOp(2/9=2000) scf=xqc
 ----------------------------------------------------------------------

 ---
 NH3
 ---
 Symbolic Z-matrix:
 Charge =  0 Multiplicity = 1

                         Standard orientation:
 ---------------------------------------------------------------------
 Center     Atomic      Atomic             Coordinates (Angstroms)
 Number     Number       Type             X           Y           Z
 ---------------------------------------------------------------------
      1          7           0        0.000000    0.000000    0.111823
      2          1           0       -0.000000    0.941082   -0.260922
      3          1           0       -0.815001   -0.470541   -0.260922
      4          1           0        0.815001   -0.470541   -0.260922
 ---------------------------------------------------------------------

 SCF Done:  E(RB2PLYPD3) =  -56.4585752171     A.U. after    1 cycles
 E2(B2PLYPD3) =    -0.7278724934D-01 E(B2PLYPD3) =    -0.56531362466463D+02
 E2(B2PLYPD3) =    -0.7278724934D-01 E(B2PLYPD3) =    -0.56531362466463D+02

 The electronic state is 1-A.
 Alpha  occ. eigenvalues --  -14.81179  -0.97227  -0.53239  -0.53239  -0.33382
 Alpha virt. eigenvalues --    0.06713   0.15129   0.15129   0.35624   0.35624
 Alpha virt. eigenvalues --    0.41271   0.52832   0.56125   0.60307   0.60307
 Alpha virt. eigenvalues --    0.99891   0.99891   1.24005   1.33218   1.33218

 Mulliken charges:
               1
     1  N   -0.683962
     2  H    0.227987
     3  H    0.227987
     4  H    0.227987
 Sum of Mulliken charges =  -0.00000

 Dipole moment (field-independent basis, Debye):
    X=             -0.0000    Y=              0.0000    Z=             -1.7024  Tot=              1.7024
 Quadrupole moment (field-independent basis, Debye-Ang):
   XX=             -6.1973   YY=             -6.1973   ZZ=             -9.2426
   XY=              0.0000   XZ=              0.0000   YZ=             -0.0000

  Exact polarizability:  10.819   0.000  10.819   0.000   0.000   9.514
 Approx polarizability:  11.154   0.000  11.154   0.000  -0.000   9.095

                      1                      2                      3
                      A                      E                      E
 Frequencies --   1042.0896              1683.6896              1683.6900
 Red. masses --      1.1826                 1.0673                 1.0673
 Frc consts  --      0.7566                 1.7826                 1.7826
 IR Inten    --    180.6056                21.7046                21.7044

                      4                      5                      6
                      A                      E                      E
 Frequencies --   3484.7895              3613.8934              3613.8939
 Red. masses --      1.0253                 1.0898                 1.0898
 Frc consts  --      7.3357                 8.3862                 8.3862
 IR Inten    --      0.6528                 2.6436                 2.6435

 - Thermochemistry -
 -------------------
 Temperature   298.150 Kelvin.  Pressure   1.00000 Atm.
 Atom     1 has atomic number  7 and mass  14.00307

 Molecular mass:    17.02655 amu.
 Principal axes and moments of inertia in atomic units:
                           1         2         3
     Eigenvalues --     6.01485   6.01485   9.56222
           X           -0.19223   0.98135   0.00000
           Y            0.98135   0.19223   0.00000
           Z            0.00000   0.00000   1.00000
 This molecule is an oblate symmetric top.
 Rotational symmetry number  3.
 Rotational temperatures (Kelvin)     14.39999    14.39999     9.05792
 Rotational constants (GHZ):         300.04751   300.04751   188.73668
 Zero-point vibrational energy      90449.9 (Joules/Mol)
                                   21.61805 (Kcal/Mol)
 Vibrational temperatures:   1499.33  2422.45  2422.45  5013.83  5199.58
          (Kelvin)           5199.58

 Zero-point correction=                           0.034451 (Hartree/Particle)
 Thermal correction to Energy=                    0.037319
 Thermal correction to Enthalpy=                  0.038263
 Thermal correction to Gibbs Free Energy=         0.016426
 Sum of electronic and zero-point Energies=            -56.496912
 Sum of electronic and thermal Energies=               -56.494044
 Sum of electronic and thermal Enthalpies=             -56.493099
 Sum of electronic and thermal Free Energies=          -56.514936

                     E (Thermal)             CV                S
                      KCal/Mol        Cal/Mol-Kelvin    Cal/Mol-Kelvin
 Total                   23.418              6.373             45.959
 Electronic               0.000              0.000              0.000
 Translational            0.889              2.981             34.441
 Rotational               0.889              2.981             11.429
 Vibrational             21.641              0.411              0.090

 Optimization completed.
    -- Stationary point found.
 Normal termination of Gaussian 09 at Sat Nov 12 21:56:38 2022.
