User input:
--------------------------------------------------------------
$rem
XC_GRID 000075000434
JOBTYPE opt
EXCHANGE M08SO
BASIS gen
GUI=2
UNRESTRICTED TRUE
CORRELATION NONE
$end

$comment
c5h11o-2
$end

$molecule
read c5h11o-4MG3S.out
$end

$basis
H  0
S  3 1.00
3.386500000000E+01 2.549380000000E-02
5.094790000000E+00 1.903730000000E-01
1.158790000000E+00 8.521610000000E-01
S  1 1.00
3.258400000000E-01 1.000000000000E+00
S  1 1.00
1.027410000000E-01 1.000000000000E+00
S  1 1.00
3.600000000000E-02 1.000000000000E+00
P  1 1.00
1.500000000000E+00 1.000000000000E+00
P  1 1.00
3.750000000000E-01 1.000000000000E+00
****
C 0
S  6 1.00
4.563240000000E+03 1.966650000000E-03
6.820240000000E+02 1.523060000000E-02
1.549730000000E+02 7.612690000000E-02
4.445530000000E+01 2.608010000000E-01
1.302900000000E+01 6.164620000000E-01
1.827730000000E+00 2.210060000000E-01
S  3 1.00
2.096420000000E+01 1.146600000000E-01
4.803310000000E+00 9.199990000000E-01
1.459330000000E+00 -3.030680000000E-03
S  1 1.00
4.834560000000E-01 1.000000000000E+00
S  1 1.00
1.455850000000E-01 1.000000000000E+00
S  1 1.00
4.380000000000E-02 1.000000000000E+00
P  3 1.00
2.096420000000E+01 4.024870000000E-02
4.803310000000E+00 2.375940000000E-01
1.459330000000E+00 8.158540000000E-01
P  1 1.00
4.834560000000E-01 1.000000000000E+00
P  1 1.00
1.455850000000E-01 1.000000000000E+00
P  1 1.00
4.380000000000E-02 1.000000000000E+00
D  1 1.00
1.252000000000E+00 1.000000000000E+00
D  1 1.00
3.130000000000E-01 1.000000000000E+00
F  1 1.00
8.000000000000E-01 1.000000000000E+00
****
O  0
S  6 1.00
8.588500000000E+03 1.895150000000E-03
1.297230000000E+03 1.438590000000E-02
2.992960000000E+02 7.073200000000E-02
8.737710000000E+01 2.400010000000E-01
2.567890000000E+01 5.947970000000E-01
3.740040000000E+00 2.808020000000E-01
S  3 1.00
4.211750000000E+01 1.138890000000E-01
9.628370000000E+00 9.208110000000E-01
2.853320000000E+00 -3.274470000000E-03
S  1 1.00
9.056610000000E-01 1.000000000000E+00
S  1 1.00
2.556110000000E-01 1.000000000000E+00
S  1 1.00
8.450000000000E-02 1.000000000000E+00
P  3 1.00
4.211750000000E+01 3.651140000000E-02
9.628370000000E+00 2.371530000000E-01
2.853320000000E+00 8.197020000000E-01
P  1 1.00
9.056610000000E-01 1.000000000000E+00
P  1 1.00
2.556110000000E-01 1.000000000000E+00
P  1 1.00
8.450000000000E-02 1.000000000000E+00
D  1 1.00
2.584000000000E+00 1.000000000000E+00
D  1 1.00
6.460000000000E-01 1.000000000000E+00
F  1 1.00
1.400000000000E+00 1.000000000000E+00
****
$end

--------------------------------------------------------------

   19    -272.2110816375      3.14E-09 Convergence criterion met
 Total energy in the final basis set = -272.2110816375
   10    -272.2114137800      7.35E-09 Convergence criterion met
 Total energy in the final basis set = -272.2114137800
   10    -272.2114675853      4.71E-09 Convergence criterion met
 Total energy in the final basis set = -272.2114675853
   10    -272.2114882615      3.85E-09 Convergence criterion met
 Total energy in the final basis set = -272.2114882615
    9    -272.2114936560      5.39E-09 Convergence criterion met
 Total energy in the final basis set = -272.2114936560
    9    -272.2115008964      9.95E-09 Convergence criterion met
 Total energy in the final basis set = -272.2115008964
    9    -272.2115031561      4.17E-09 Convergence criterion met
 Total energy in the final basis set = -272.2115031561
    8    -272.2115038202      6.22E-09 Convergence criterion met
 **  OPTIMIZATION CONVERGED  **
 Total job time:  9245.91s(wall), 9171.17s(cpu)
        *  Thank you very much for using Q-Chem.  Have a nice day.  *

User input:
--------------------------------------------------------------

$molecule
READ
$end

$rem
JOBTYPE Freq
XC_GRID 000075000434
EXCHANGE M08SO
BASIS gen
GUI=2
SCF_GUESS READ
$end

$basis
H  0
S  3 1.00
3.386500000000E+01 2.549380000000E-02
5.094790000000E+00 1.903730000000E-01
1.158790000000E+00 8.521610000000E-01
S  1 1.00
3.258400000000E-01 1.000000000000E+00
S  1 1.00
1.027410000000E-01 1.000000000000E+00
S  1 1.00
3.600000000000E-02 1.000000000000E+00
P  1 1.00
1.500000000000E+00 1.000000000000E+00
P  1 1.00
3.750000000000E-01 1.000000000000E+00
****
C 0
S  6 1.00
4.563240000000E+03 1.966650000000E-03
6.820240000000E+02 1.523060000000E-02
1.549730000000E+02 7.612690000000E-02
4.445530000000E+01 2.608010000000E-01
1.302900000000E+01 6.164620000000E-01
1.827730000000E+00 2.210060000000E-01
S  3 1.00
2.096420000000E+01 1.146600000000E-01
4.803310000000E+00 9.199990000000E-01
1.459330000000E+00 -3.030680000000E-03
S  1 1.00
4.834560000000E-01 1.000000000000E+00
S  1 1.00
1.455850000000E-01 1.000000000000E+00
S  1 1.00
4.380000000000E-02 1.000000000000E+00
P  3 1.00
2.096420000000E+01 4.024870000000E-02
4.803310000000E+00 2.375940000000E-01
1.459330000000E+00 8.158540000000E-01
P  1 1.00
4.834560000000E-01 1.000000000000E+00
P  1 1.00
1.455850000000E-01 1.000000000000E+00
P  1 1.00
4.380000000000E-02 1.000000000000E+00
D  1 1.00
1.252000000000E+00 1.000000000000E+00
D  1 1.00
3.130000000000E-01 1.000000000000E+00
F  1 1.00
8.000000000000E-01 1.000000000000E+00
****
O  0
S  6 1.00
8.588500000000E+03 1.895150000000E-03
1.297230000000E+03 1.438590000000E-02
2.992960000000E+02 7.073200000000E-02
8.737710000000E+01 2.400010000000E-01
2.567890000000E+01 5.947970000000E-01
3.740040000000E+00 2.808020000000E-01
S  3 1.00
4.211750000000E+01 1.138890000000E-01
9.628370000000E+00 9.208110000000E-01
2.853320000000E+00 -3.274470000000E-03
S  1 1.00
9.056610000000E-01 1.000000000000E+00
S  1 1.00
2.556110000000E-01 1.000000000000E+00
S  1 1.00
8.450000000000E-02 1.000000000000E+00
P  3 1.00
4.211750000000E+01 3.651140000000E-02
9.628370000000E+00 2.371530000000E-01
2.853320000000E+00 8.197020000000E-01
P  1 1.00
9.056610000000E-01 1.000000000000E+00
P  1 1.00
2.556110000000E-01 1.000000000000E+00
P  1 1.00
8.450000000000E-02 1.000000000000E+00
D  1 1.00
2.584000000000E+00 1.000000000000E+00
D  1 1.00
6.460000000000E-01 1.000000000000E+00
F  1 1.00
1.400000000000E+00 1.000000000000E+00
****
--------------------------------------------------------------

 Total energy in the final basis set = -272.2115030721
    8    -272.2115031750      3.95E-09 Convergence criterion met
 Total energy in the final basis set = -272.2115031750
    7    -272.2115040343      8.81E-09 Convergence criterion met
 Total energy in the final basis set = -272.2115040343
    7    -272.2115040571      7.51E-09 Convergence criterion met
 Total energy in the final basis set = -272.2115040571
    7    -272.2115040144      6.78E-09 Convergence criterion met
 Total energy in the final basis set = -272.2115040144
    8    -272.2115040554      2.54E-09 Convergence criterion met
 Total energy in the final basis set = -272.2115040554
    7    -272.2115033223      8.57E-09 Convergence criterion met
 Total energy in the final basis set = -272.2115033223
    8    -272.2115032111      4.08E-09 Convergence criterion met
 Total energy in the final basis set = -272.2115032111

                    Orbital Energies (a.u.)
 --------------------------------------------------------------

 Alpha MOs
 -- Occupied --
-19.563 -10.542 -10.513 -10.498 -10.493 -10.491  -1.135  -0.917
 -0.827  -0.791  -0.726  -0.624  -0.591  -0.549  -0.536  -0.509
 -0.493  -0.478  -0.464  -0.443  -0.428  -0.413  -0.399  -0.356
 -0.239

 Beta MOs
 -- Occupied --
-19.563 -10.542 -10.499 -10.496 -10.494 -10.492  -1.135  -0.908
 -0.824  -0.789  -0.724  -0.610  -0.590  -0.539  -0.527  -0.498
 -0.483  -0.473  -0.455  -0.440  -0.427  -0.416  -0.398  -0.356

          Ground-State Mulliken Net Atomic Charges

     Atom                 Charge (a.u.)    Spin (a.u.)
  --------------------------------------------------------
      1 C                     0.548552       0.934969
      2 C                    -0.720039      -0.060975
      3 H                     0.177460       0.011114
      4 H                     0.182218       0.010876
      5 H                     0.183283       0.070872
      6 C                    -0.877165      -0.064561
      7 H                     0.182927       0.003784
      8 H                     0.218665       0.021105
      9 H                     0.215576       0.069625
     10 C                    -0.369512      -0.098721
     11 H                     0.224170       0.018150
     12 H                     0.182588       0.078929
     13 C                    -0.575567       0.001281
     14 H                     0.252203       0.002720
     15 H                     0.241509       0.001626
     16 O                    -0.349180       0.000256
     17 H                     0.282312      -0.001050
  --------------------------------------------------------
  Sum of atomic charges =     0.000000

                    Cartesian Multipole Moments
 -----------------------------------------------------------------
    Charge (ESU x 10^10)
                 0.0000
    Dipole Moment (Debye)
         X       1.4384      Y      -0.1802      Z      -1.3456
       Tot       1.9779
    Quadrupole Moments (Debye-Ang)
        XX     -45.3448     XY      -0.0176     YY     -39.6993
        XZ       4.0617     YZ      -0.9389     ZZ     -38.8554
    Octapole Moments (Debye-Ang^2)
       XXX      10.3329    XXY       0.2801    XYY      -4.4063
       YYY       1.4732    XXZ     -12.1124    XYZ       2.8916
       YYZ       0.6107    XZZ      -9.3877    YZZ       0.7793
       ZZZ      -2.2783
    Hexadecapole Moments (Debye-Ang^3)
      XXXX    -849.0699   XXXY     -14.5387   XXYY    -175.9334
      XYYY      -1.3036   YYYY    -260.5202   XXXZ      47.5873
      XXYZ     -10.7304   XYYZ       3.1404   YYYZ       1.3932
      XXZZ    -133.0509   XYZZ      -2.1659   YYZZ     -55.7592

       Standard Nuclear Orientation (Angstroms)
    I     Atom         X            Y            Z
 ----------------------------------------------------
    1      C       1.049611     0.031199     0.090567
    2      C       2.199068     0.986438     0.085047
    3      H       3.071682     0.571808     0.607530
    4      H       1.932318     1.940985     0.559098
    5      H       2.528041     1.224479    -0.945252
    6      C       1.315427    -1.430527    -0.091386
    7      H       2.326985    -1.692690     0.242994
    8      H       0.603649    -2.057686     0.464790
    9      H       1.234526    -1.734064    -1.153360
   10      C      -0.320307     0.577984    -0.174305
   11      H      -0.460119     1.528566     0.363485
   12      H      -0.426944     0.826498    -1.254029
   13      C      -1.463740    -0.364051     0.206738
   14      H      -1.386125    -0.637959     1.267039
   15      H      -1.407683    -1.295770    -0.380278
   16      O      -2.732042     0.248869     0.049232
   17      H      -2.840344     0.528623    -0.865831
 ----------------------------------------------------

 Frequency:        54.41                  95.51                 107.41
 Force Cnst:      0.0033                 0.0073                 0.0083
 Red. Mass:       1.9155                 1.3645                 1.2243
 IR Intens:        0.000                  0.000                  0.000
 Frequency:       131.32                 190.47                 261.77
 Force Cnst:      0.0196                 0.0393                 0.0705
 Red. Mass:       1.9337                 1.8382                 1.7464
 IR Intens:        0.000                  0.000                  0.000
 Frequency:       273.70                 332.08                 389.99
 Force Cnst:      0.0611                 0.1648                 0.2627
 Red. Mass:       1.3847                 2.5356                 2.9313
 IR Intens:        0.000                  0.000                  0.000
 Frequency:       463.61                 751.54                 797.28
 Force Cnst:      0.4027                 0.3843                 1.1997
 Red. Mass:       3.1796                 1.1549                 3.2034
 IR Intens:        0.000                  0.000                  0.000
 Frequency:       928.32                 955.99                 974.82
 Force Cnst:      0.6239                 0.7817                 0.7474
 Red. Mass:       1.2287                 1.4517                 1.3350
 IR Intens:        0.000                  0.000                  0.000
 Frequency:      1006.23                1039.55                1072.59
 Force Cnst:      0.9372                 1.2863                 1.3059
 Red. Mass:       1.5710                 2.0202                 1.9266
 IR Intens:        0.000                  0.000                  0.000
 Frequency:      1107.95                1149.94                1223.13
 Force Cnst:      2.3949                 1.0229                 1.5811
 Red. Mass:       3.3113                 1.3129                 1.7938
 IR Intens:        0.000                  0.000                  0.000
 Frequency:      1280.42                1304.90                1329.52
 Force Cnst:      1.2117                 2.6250                 1.6323
 Red. Mass:       1.2544                 2.6165                 1.5673
 IR Intens:        0.000                  0.000                  0.000
 Frequency:      1361.25                1390.24                1403.73
 Force Cnst:      1.4474                 1.6024                 1.5003
 Red. Mass:       1.3258                 1.4072                 1.2923
 IR Intens:        0.000                  0.000                  0.000
 Frequency:      1408.41                1446.98                1453.38
 Force Cnst:      1.7581                 1.3285                 1.3211
 Red. Mass:       1.5043                 1.0769                 1.0615
 IR Intens:        0.000                  0.000                  0.000
 Frequency:      1462.64                1466.32                1473.21
 Force Cnst:      1.3623                 1.3597                 1.3772
 Red. Mass:       1.0808                 1.0733                 1.0770
 IR Intens:        0.000                  0.000                  0.000
 Frequency:      1498.96                2854.18                2907.12
 Force Cnst:      1.4414                 5.1432                 5.2589
 Red. Mass:       1.0888                 1.0716                 1.0561
 IR Intens:        0.000                  0.000                  0.000
 Frequency:      2914.53                2961.89                2983.51
 Force Cnst:      5.2886                 5.5278                 5.6719
 Red. Mass:       1.0567                 1.0695                 1.0815
 IR Intens:        0.000                  0.000                  0.000
 Frequency:      2995.26                2995.87                3035.72
 Force Cnst:      5.6822                 5.6847                 5.9630
 Red. Mass:       1.0750                 1.0750                 1.0982
 IR Intens:        0.000                  0.000                  0.000
 Frequency:      3041.43                3046.05                3881.85
 Force Cnst:      6.0061                 6.0100                 9.4674
 Red. Mass:       1.1020                 1.0994                 1.0664
 IR Intens:        0.000                  0.000                  0.000

 STANDARD THERMODYNAMIC QUANTITIES AT   298.15 K  AND     1.00 ATM

   This Molecule has  0 Imaginary Frequencies
   Zero point vibrational energy:       93.215 kcal/mol

   Atom    1 Element C  Has Mass   12.00000
   Atom    2 Element C  Has Mass   12.00000
   Atom    3 Element H  Has Mass    1.00783
   Atom    4 Element H  Has Mass    1.00783
   Atom    5 Element H  Has Mass    1.00783
   Atom    6 Element C  Has Mass   12.00000
   Atom    7 Element H  Has Mass    1.00783
   Atom    8 Element H  Has Mass    1.00783
   Atom    9 Element H  Has Mass    1.00783
   Atom   10 Element C  Has Mass   12.00000
   Atom   11 Element H  Has Mass    1.00783
   Atom   12 Element H  Has Mass    1.00783
   Atom   13 Element C  Has Mass   12.00000
   Atom   14 Element H  Has Mass    1.00783
   Atom   15 Element H  Has Mass    1.00783
   Atom   16 Element O  Has Mass   15.99491
   Atom   17 Element H  Has Mass    1.00783
   Molecular Mass:    87.081040 amu
   Principal axes and moments of inertia in atomic units:
                             1           2           3
    Eigenvalues --      259.58677  1022.09301  1220.11116
          X               0.99996     0.00646     0.00558
          Y              -0.00643     0.99996    -0.00589
          Z              -0.00562     0.00585     0.99997
   Rotational Symmetry Number is   1
   The Molecule is an Asymmetric Top
   Translational Enthalpy:        0.889 kcal/mol
   Rotational Enthalpy:           0.889 kcal/mol
   Vibrational Enthalpy:         96.966 kcal/mol
   gas constant (RT):             0.592 kcal/mol
   Translational Entropy:        39.306  cal/mol.K
   Rotational Entropy:           27.273  cal/mol.K
   Vibrational Entropy:          24.314  cal/mol.K

   Total Enthalpy:               99.336 kcal/mol
   Total Entropy:                90.892  cal/mol.K

 Total job time:  79527.94s(wall), 79028.67s(cpu)
        *  Thank you very much for using Q-Chem.  Have a nice day.  *
