User input:
--------------------------------------------------------------
$rem
JOBTYPE pes_scan
EXCHANGE M062X
BASIS gen
GUI=2
UNRESTRICTED TRUE
CORRELATION NONE
$end

$scan
tors 14 13 16 17 -180 180 15
$end

$comment
c5h11o-1
$end

$molecule
READ c5h11o-4MG3S.out
$end

$basis
H  0
S  3 1.00
3.386500000000E+01 2.549380000000E-02
5.094790000000E+00 1.903730000000E-01
1.158790000000E+00 8.521610000000E-01
S  1 1.00
3.258400000000E-01 1.000000000000E+00
S  1 1.00
1.027410000000E-01 1.000000000000E+00
S  1 1.00
3.600000000000E-02 1.000000000000E+00
P  1 1.00
1.500000000000E+00 1.000000000000E+00
P  1 1.00
3.750000000000E-01 1.000000000000E+00
****
C 0
S  6 1.00
4.563240000000E+03 1.966650000000E-03
6.820240000000E+02 1.523060000000E-02
1.549730000000E+02 7.612690000000E-02
4.445530000000E+01 2.608010000000E-01
1.302900000000E+01 6.164620000000E-01
1.827730000000E+00 2.210060000000E-01
S  3 1.00
2.096420000000E+01 1.146600000000E-01
4.803310000000E+00 9.199990000000E-01
1.459330000000E+00 -3.030680000000E-03
S  1 1.00
4.834560000000E-01 1.000000000000E+00
S  1 1.00
1.455850000000E-01 1.000000000000E+00
S  1 1.00
4.380000000000E-02 1.000000000000E+00
P  3 1.00
2.096420000000E+01 4.024870000000E-02
4.803310000000E+00 2.375940000000E-01
1.459330000000E+00 8.158540000000E-01
P  1 1.00
4.834560000000E-01 1.000000000000E+00
P  1 1.00
1.455850000000E-01 1.000000000000E+00
P  1 1.00
4.380000000000E-02 1.000000000000E+00
D  1 1.00
1.252000000000E+00 1.000000000000E+00
D  1 1.00
3.130000000000E-01 1.000000000000E+00
F  1 1.00
8.000000000000E-01 1.000000000000E+00
****
O  0
S  6 1.00
8.588500000000E+03 1.895150000000E-03
1.297230000000E+03 1.438590000000E-02
2.992960000000E+02 7.073200000000E-02
8.737710000000E+01 2.400010000000E-01
2.567890000000E+01 5.947970000000E-01
3.740040000000E+00 2.808020000000E-01
S  3 1.00
4.211750000000E+01 1.138890000000E-01
9.628370000000E+00 9.208110000000E-01
2.853320000000E+00 -3.274470000000E-03
S  1 1.00
9.056610000000E-01 1.000000000000E+00
S  1 1.00
2.556110000000E-01 1.000000000000E+00
S  1 1.00
8.450000000000E-02 1.000000000000E+00
P  3 1.00
4.211750000000E+01 3.651140000000E-02
9.628370000000E+00 2.371530000000E-01
2.853320000000E+00 8.197020000000E-01
P  1 1.00
9.056610000000E-01 1.000000000000E+00
P  1 1.00
2.556110000000E-01 1.000000000000E+00
P  1 1.00
8.450000000000E-02 1.000000000000E+00
D  1 1.00
2.584000000000E+00 1.000000000000E+00
D  1 1.00
6.460000000000E-01 1.000000000000E+00
F  1 1.00
1.400000000000E+00 1.000000000000E+00
****
$end

--------------------------------------------------------------

   19    -272.2776050879      2.81E-09 Convergence criterion met
 Total energy in the final basis set = -272.2776050879
   18    -272.2778597920      9.87E-09 Convergence criterion met
 Total energy in the final basis set = -272.2778597920
   18    -272.2778857808      9.86E-09 Convergence criterion met
 Total energy in the final basis set = -272.2778857808
   18    -272.2778942189      9.79E-09 Convergence criterion met
 Total energy in the final basis set = -272.2778942189
   18    -272.2778990915      9.69E-09 Convergence criterion met
 Total energy in the final basis set = -272.2778990915
   18    -272.2779032597      9.61E-09 Convergence criterion met
 Total energy in the final basis set = -272.2779032597
   18    -272.2779067341      9.57E-09 Convergence criterion met
 Total energy in the final basis set = -272.2779067341
   18    -272.2779083954      9.59E-09 Convergence criterion met
 **  OPTIMIZATION CONVERGED  **
 **  OPTIMIZATION CONVERGED  **
 **  OPTIMIZATION CONVERGED  **
   19    -272.2776006994      2.60E-09 Convergence criterion met
 Total energy in the final basis set = -272.2776006994
   18    -272.2756176732      8.59E-09 Convergence criterion met
 Total energy in the final basis set = -272.2756176732
   18    -272.2770810757      7.93E-09 Convergence criterion met
 Total energy in the final basis set = -272.2770810757
   18    -272.2778044310      9.00E-09 Convergence criterion met
 Total energy in the final basis set = -272.2778044310
   18    -272.2778304372      9.61E-09 Convergence criterion met
 Total energy in the final basis set = -272.2778304372
   18    -272.2778332608      9.70E-09 Convergence criterion met
 Total energy in the final basis set = -272.2778332608

       Standard Nuclear Orientation (Angstroms)
    I     Atom         X            Y            Z
 ----------------------------------------------------
    1      C       1.038355     0.026450     0.144406
    2      C       2.160745     1.006044     0.199344
    3      H       3.013703     0.609639     0.751608
    4      H       1.854184     1.942545     0.665289
    5      H       2.526567     1.254242    -0.807786
    6      C       1.364268    -1.391501    -0.194064
    7      H       2.355760    -1.659785     0.169882
    8      H       0.649752    -2.097035     0.231546
    9      H       1.362924    -1.558128    -1.281172
   10      C      -0.331045     0.559634    -0.129460
   11      H      -0.509340     1.450339     0.479330
   12      H      -0.399924     0.896566    -1.179421
   13      C      -1.464973    -0.424844     0.126017
   14      H      -1.405506    -0.806828     1.145705
   15      H      -1.392702    -1.281864    -0.550553
   16      O      -2.735206     0.187173     0.015066
   17      H      -2.834675     0.540752    -0.871224
 ----------------------------------------------------

   18    -272.2778338758      9.70E-09 Convergence criterion met
 Total energy in the final basis set = -272.2778338758

                    Orbital Energies (a.u.)
 --------------------------------------------------------------

 Alpha MOs
 -- Occupied --
-19.620 -10.580 -10.547 -10.535 -10.531 -10.528  -1.145  -0.919
 -0.828  -0.790  -0.724  -0.622  -0.586  -0.542  -0.529  -0.503
 -0.487  -0.472  -0.458  -0.437  -0.422  -0.407  -0.393  -0.347
 -0.232

 Beta MOs
 -- Occupied --
-19.620 -10.580 -10.540 -10.536 -10.531 -10.529  -1.145  -0.901
 -0.824  -0.786  -0.721  -0.601  -0.585  -0.533  -0.520  -0.492
 -0.479  -0.468  -0.450  -0.435  -0.416  -0.402  -0.391  -0.346

          Ground-State Mulliken Net Atomic Charges

     Atom                 Charge (a.u.)    Spin (a.u.)
  --------------------------------------------------------
      1 C                     0.268788       0.888507
      2 C                    -0.490320      -0.030381
      3 H                     0.133801       0.013919
      4 H                     0.131250       0.008009
      5 H                     0.128008       0.058700
      6 C                    -0.562989      -0.057020
      7 H                     0.132888       0.007376
      8 H                     0.147605       0.015609
      9 H                     0.147172       0.059104
     10 C                    -0.211352      -0.052196
     11 H                     0.161802       0.016912
     12 H                     0.117727       0.063722
     13 C                    -0.386395       0.009065
     14 H                     0.187451       0.000796
     15 H                     0.169548      -0.002563
     16 O                    -0.328620       0.001112
     17 H                     0.253637      -0.000671
  --------------------------------------------------------
  Sum of atomic charges =     0.000000

                    Cartesian Multipole Moments
 -----------------------------------------------------------------
    Charge (ESU x 10^10)
                 0.0000
    Dipole Moment (Debye)
         X       1.4014      Y      -0.0274      Z      -1.3931
       Tot       1.9762
    Quadrupole Moments (Debye-Ang)
        XX     -44.7697     XY      -0.4492     YY     -39.0788
        XZ       3.8494     YZ      -0.9118     ZZ     -38.5092
    Octapole Moments (Debye-Ang^2)
       XXX      10.1638    XXY       2.2086    XYY      -4.9305
       YYY       2.4708    XXZ     -11.2192    XYZ       2.9963
       YYZ       0.7930    XZZ      -9.0409    YZZ       1.4323
       ZZZ      -2.3651
    Hexadecapole Moments (Debye-Ang^3)
      XXXX    -836.5278   XXXY     -22.7144   XXYY    -171.4863
      XYYY      -5.9239   YYYY    -251.6831   XXXZ      37.7474
      XXYZ     -13.5040   XYYZ       0.6891   YYYZ      -6.7471
      XXZZ    -130.5654   XYZZ      -3.4686   YYZZ     -53.9443

 Final energy is   -272.277833875797
 **  OPTIMIZATION CONVERGED  **
 Total job time:  77811.87s(wall), 76230.94s(cpu)
        *  Thank you very much for using Q-Chem.  Have a nice day.  *
