 Gaussian 09, Revision D.01,
 Gaussian 09:  ES64L-G09RevD.01 24-Apr-2013

 ----------------------------------------------------------------------
 #P guess=read ub2plypd3/def2tzvp freq IOp(7/33=1) scf=(tight, direct)
 integral=(grid=ultrafine, Acc2E=12) IOp(2/9=2000) scf=xqc
 ----------------------------------------------------------------------

 ------------
 2-Iminoethyl
 ------------
 Symbolic Z-matrix:
 Charge =  0 Multiplicity = 2

                         Standard orientation:
 ---------------------------------------------------------------------
 Center     Atomic      Atomic             Coordinates (Angstroms)
 Number     Number       Type             X           Y           Z
 ---------------------------------------------------------------------
      1          6           0       -1.198722   -0.166466    0.000000
      2          6           0        0.075048    0.408394   -0.000000
      3          7           0        1.144256   -0.341548    0.000000
      4          1           0       -2.089068    0.443791   -0.000000
      5          1           0       -1.294135   -1.242622   -0.000000
      6          1           0        0.133326    1.499126    0.000001
      7          1           0        1.982132    0.238973   -0.000000
 ---------------------------------------------------------------------

 SCF Done:  E(UB2PLYPD3) =  -133.071739824     A.U. after    1 cycles
 E2(B2PLYPD3) =    -0.1597723178D+00 E(B2PLYPD3) =    -0.13323151214229D+03
 E2(B2PLYPD3) =    -0.1597723178D+00 E(B2PLYPD3) =    -0.13323151214229D+03

 The electronic state is 2-A.
 Alpha  occ. eigenvalues --  -14.84099 -10.65474 -10.63699  -1.04226  -0.85568
 Alpha  occ. eigenvalues --   -0.65744  -0.59805  -0.49977  -0.47902  -0.43610
 Alpha  occ. eigenvalues --   -0.35316  -0.29715
 Alpha virt. eigenvalues --    0.07873   0.08444   0.11990   0.13507   0.16254
 Alpha virt. eigenvalues --    0.21026   0.23004   0.25682   0.27209   0.33094
 Alpha virt. eigenvalues --    0.33351   0.35956   0.40620   0.46009   0.47144

  Beta  occ. eigenvalues --  -14.82661 -10.66105 -10.62389  -1.01649  -0.81829
  Beta  occ. eigenvalues --   -0.64767  -0.59317  -0.49214  -0.47168  -0.37514
  Beta  occ. eigenvalues --   -0.33730
  Beta virt. eigenvalues --   -0.03464   0.08589   0.11167   0.12464   0.13642
  Beta virt. eigenvalues --    0.16382   0.21288   0.22987   0.26865   0.27531
  Beta virt. eigenvalues --    0.33471   0.35882   0.36498   0.40929   0.47370

 Mulliken charges and spin densities:
               1          2
     1  C   -0.179092   0.846307
     2  C   -0.042060  -0.366521
     3  N   -0.334894   0.612261
     4  H    0.132779  -0.042641
     5  H    0.130939  -0.037404
     6  H    0.085689   0.014101
     7  H    0.206639  -0.026103
 Sum of Mulliken charges =   0.00000   1.00000

 Dipole moment (field-independent basis, Debye):
    X=             -0.7412    Y=              1.8167    Z=             -0.0000  Tot=              1.9620
 Quadrupole moment (field-independent basis, Debye-Ang):
   XX=            -16.1116   YY=            -18.8502   ZZ=            -20.5013
   XY=              2.5568   XZ=              0.0000   YZ=              0.0000

  Exact polarizability:  47.452  -0.497  30.435  -0.000   0.000  20.751
 Approx polarizability:  46.862  -1.490  33.047  -0.000  -0.000  24.222

                      1                      2                      3
                      A                      A                      A
 Frequencies --    494.4470               525.5277               688.6588
 Red. masses --      2.2544                 1.2192                 1.0954
 Frc consts  --      0.3247                 0.1984                 0.3061
 IR Inten    --     12.7455                 4.8198               105.7212

                      4                      5                      6
                      A                      A                      A
 Frequencies --    829.9821              1008.0051              1073.6771
 Red. masses --      1.4576                 1.5124                 1.2813
 Frc consts  --      0.5916                 0.9054                 0.8702
 IR Inten    --     11.8279                10.9804                 0.0277

                      7                      8                      9
                      A                      A                      A
 Frequencies --   1100.1298              1254.2500              1371.6161
 Red. masses --      2.0398                 1.4131                 2.2407
 Frc consts  --      1.4545                 1.3097                 2.4837
 IR Inten    --     22.2928                 8.7433                35.0737

                     10                     11                     12
                      A                      A                      A
 Frequencies --   1476.7265              1516.7470              3075.7142
 Red. masses --      1.5692                 1.4696                 1.0874
 Frc consts  --      2.0161                 1.9919                 6.0606
 IR Inten    --      1.7273                 9.7887                41.8945

                     13                     14                     15
                      A                      A                      A
 Frequencies --   3179.2935              3290.2146              3464.3207
 Red. masses --      1.0524                 1.1193                 1.0748
 Frc consts  --      6.2675                 7.1394                 7.5998
 IR Inten    --      3.1838                 2.2799                 0.6814

 - Thermochemistry -
 -------------------
 Temperature   298.150 Kelvin.  Pressure   1.00000 Atm.
 Atom     1 has atomic number  6 and mass  12.00000

 Molecular mass:    42.03437 amu.
 Principal axes and moments of inertia in atomic units:
                           1         2         3
     Eigenvalues --    28.48981 163.25932 191.74914
           X            0.99939   0.03492   0.00000
           Y           -0.03492   0.99939   0.00000
           Z           -0.00000  -0.00000   1.00000
 This molecule is an asymmetric top.
 Rotational symmetry number  1.
 Rotational temperatures (Kelvin)      3.04017     0.53053     0.45170
 Rotational constants (GHZ):          63.34689    11.05445     9.41199
 Zero-point vibrational energy     145641.2 (Joules/Mol)
                                   34.80909 (Kcal/Mol)
 Warning -- explicit consideration of   2 degrees of freedom as
           vibrations may cause significant error
 Vibrational temperatures:    711.40   756.12   990.83  1194.16  1450.29
          (Kelvin)           1544.78  1582.84  1804.58  1973.45  2124.68
                             2182.26  4425.26  4574.29  4733.88  4984.38

 Zero-point correction=                           0.055472 (Hartree/Particle)
 Thermal correction to Energy=                    0.059046
 Thermal correction to Enthalpy=                  0.059990
 Thermal correction to Gibbs Free Energy=         0.030531
 Sum of electronic and zero-point Energies=           -133.176040
 Sum of electronic and thermal Energies=              -133.172466
 Sum of electronic and thermal Enthalpies=            -133.171522
 Sum of electronic and thermal Free Energies=         -133.200981

                     E (Thermal)             CV                S
                      KCal/Mol        Cal/Mol-Kelvin    Cal/Mol-Kelvin
 Total                   37.052             11.264             62.001
 Electronic               0.000              0.000              1.377
 Translational            0.889              2.981             37.135
 Rotational               0.889              2.981             21.416
 Vibrational             35.275              5.302              2.073
 Vibration     1          0.850              1.262              0.672
 Vibration     2          0.880              1.193              0.597

 Optimization completed.
    -- Stationary point found.
 Normal termination of Gaussian 09 at Sat Nov 12 22:11:44 2022.
