                         Program Version 5.0.4 -  RELEASE  -
|  1> !uHF  aug-cc-pvtz  tightscf
|  2> !sp
|  3>
|  4> %maxcore 3200
|  5> %pal nprocs 16 end
|  6>
|  7> * xyz 0 4
|  8> N       0.00000000    0.00000000    0.00000000
|  9> *
| 10>
| 11> %scf
| 12> MaxIter 999
| 13> end
| 14>
| 15>
| 16> %mp2
| 17>     RI true
| 18> end
| 19>
| 20> %casscf
| 21>     nel 5
| 22>     norb 4
| 23>     nroots 1
| 24>     maxiter 999
| 25> end
| 26>
| 27> %mrci
| 28>     citype MRCI
| 29>     davidsonopt true
| 30>     maxiter 999
| 31> end
| 32>
| 33>
| 34>                          ****END OF INPUT****

CARTESIAN COORDINATES (ANGSTROEM)
---------------------------------
  N      0.000000    0.000000    0.000000

 Total Charge           Charge          ....    0
 Multiplicity           Mult            ....    4
 Number of Electrons    NEL             ....    7
 Basis Dimension        Dim             ....   46

ORBITAL ENERGIES
----------------

  NO   OCC          E(Eh)            E(eV)
   0   2.0000     -15.630414      -425.3252
   1   2.0000      -0.946888       -25.7661
   2   1.0000      -0.180692        -4.9169
   3   1.0000      -0.180692        -4.9169
   4   1.0000      -0.180692        -4.9169
   5   0.0000       0.129931         3.5356
   6   0.0000       0.137198         3.7333
   7   0.0000       0.137198         3.7333
   8   0.0000       0.137198         3.7333
   9   0.0000       0.464734        12.6461

MULLIKEN ATOMIC CHARGES AND SPIN DENSITIES
------------------------------------------
   0 N :   -0.000000    3.000000
Sum of atomic charges       :   -0.0000000

LOEWDIN ATOMIC CHARGES AND SPIN DENSITIES
-----------------------------------------
   0 N :   -0.000000    3.000000

FINAL SINGLE POINT ENERGY       -54.517717249721

DIPOLE MOMENT
-------------
                                X             Y             Z
Electronic contribution:      0.00000       0.00000       0.00000
Nuclear contribution   :      0.00000       0.00000       0.00000
                        -----------------------------------------
Total Dipole Moment    :      0.00000       0.00000       0.00000
                        -----------------------------------------
Magnitude (a.u.)       :      0.00000
Magnitude (Debye)      :      0.00000

Rotational constants in cm-1:     0.000000     0.000000     0.000000
Rotational constants in MHz :     0.000000     0.000000     0.000000

                             ****ORCA TERMINATED NORMALLY****
TOTAL RUN TIME: 0 days 0 hours 0 minutes 18 seconds 202 msec
