                         Program Version 4.0.1.2 - RELEASE -
|  1> ! PM3 OptTS NumFreq
|  2>
|  3> *xyz -1 1
|  4>   C   -1.99283303076949     -0.43906204115263    0.01309547131865
|  5>   Cl  0.08654162182067     -0.43514846620583     -0.01623959206210
|  6>   H   -2.09531444966205     -1.26265127699215    0.70686814906647
|  7>   H   -2.12108831451492     -0.62708960496606     -1.04443065188875
|  8>   H   -2.10329090994441      0.57197871671963    0.38153156676382
|  9>   F   -4.09261491692978     -0.44315732740297    0.04308505680191
| 10> *
| 11>
| 12>
| 13>                          ****END OF INPUT****
 Total Charge           Charge          ....   -1
 Multiplicity           Mult            ....    1
 Number of Electrons    NEL             ....   22
FINAL SINGLE POINT ENERGY       -33.865529214590
FINAL SINGLE POINT ENERGY       -33.864302805737
FINAL SINGLE POINT ENERGY       -33.861535997822
FINAL SINGLE POINT ENERGY       -33.857382568539
FINAL SINGLE POINT ENERGY       -33.852064964717
FINAL SINGLE POINT ENERGY       -33.847372722294
FINAL SINGLE POINT ENERGY       -33.851602274926
FINAL SINGLE POINT ENERGY       -33.852916607070
FINAL SINGLE POINT ENERGY       -33.855823315456
FINAL SINGLE POINT ENERGY       -33.861190843415
FINAL SINGLE POINT ENERGY       -33.861939426675
FINAL SINGLE POINT ENERGY       -33.864609193966
FINAL SINGLE POINT ENERGY       -33.865383408296
FINAL SINGLE POINT ENERGY       -33.865408703905
                    ***********************HURRAY********************

CARTESIAN COORDINATES (ANGSTROEM)
---------------------------------
  C     -1.965646   -0.439031    0.012764
  Cl     0.077567   -0.435125   -0.016221
  H     -2.101150   -1.260246    0.704986
  H     -2.127141   -0.626585   -1.041135
  H     -2.109251    0.568940    0.380628
  F     -4.092979   -0.443083    0.042888

 Multiplicity           Mult            ....    1
 Number of Electrons    NEL             ....   22
 Basis Dimension        Dim             ....   15

ORBITAL ENERGIES
----------------

  NO   OCC          E(Eh)            E(eV)
   0   2.0000      -1.851174       -50.3730
   1   2.0000      -0.865356       -23.5475
   2   2.0000      -0.377990       -10.2856
   3   2.0000      -0.377978       -10.2853
   4   2.0000      -0.327983        -8.9249
   5   2.0000      -0.279554        -7.6071
   6   2.0000      -0.233317        -6.3489
   7   2.0000      -0.233317        -6.3489
   8   2.0000      -0.184269        -5.0142
   9   2.0000      -0.184269        -5.0142
  10   2.0000      -0.151857        -4.1322
  11   0.0000       0.179844         4.8938
  12   0.0000       0.289364         7.8740
  13   0.0000       0.324226         8.8226
  14   0.0000       0.324232         8.8228

MULLIKEN ATOMIC CHARGES
-----------------------
   0 C :    0.103102
   1 Cl:   -0.611382
   2 H :    0.118822
   3 H :    0.118815
   4 H :    0.118815
   5 F :   -0.848171
Sum of atomic charges:   -1.0000000

LOEWDIN ATOMIC CHARGES
----------------------
   0 C :    0.308059
   1 Cl:   -0.596225
   2 H :    0.045079
   3 H :    0.045076
   4 H :    0.045075
   5 F :   -0.847064

  Mayer bond orders larger than 0.1
B(  0-C ,  1-Cl) :   0.5408 B(  0-C ,  2-H ) :   0.8891 B(  0-C ,  3-H ) :   0.8891
B(  0-C ,  4-H ) :   0.8891 B(  0-C ,  5-F ) :   0.2208

FINAL SINGLE POINT ENERGY       -33.865407694733

DIPOLE MOMENT
-------------
                                X             Y             Z
Electronic contribution:     25.75803       0.04913      -0.36521
Nuclear contribution   :    -19.98040      -0.03810       0.28323
                        -----------------------------------------
Total Dipole Moment    :      5.77764       0.01102      -0.08198
                        -----------------------------------------
Magnitude (a.u.)       :      5.77823
Magnitude (Debye)      :     14.68709

VIBRATIONAL FREQUENCIES
-----------------------

   0:         0.00 cm**-1
   1:         0.00 cm**-1
   2:         0.00 cm**-1
   3:         0.00 cm**-1
   4:         0.00 cm**-1
   5:         0.00 cm**-1
   6:      -503.24 cm**-1 ***imaginary mode***
   7:       173.47 cm**-1
   8:       173.53 cm**-1
   9:       331.23 cm**-1
  10:       929.12 cm**-1
  11:       929.15 cm**-1
  12:      1074.81 cm**-1
  13:      1269.59 cm**-1
  14:      1269.95 cm**-1
  15:      3107.08 cm**-1
  16:      3186.99 cm**-1
  17:      3187.08 cm**-1

IR SPECTRUM
-----------

 Mode    freq (cm**-1)   T**2         TX         TY         TZ
-------------------------------------------------------------------
   7:       173.47  573.889339  ( -0.347388   3.476384 -23.699861)
   8:       173.53  573.576028  ( -0.003072 -23.695211  -3.480373)
   9:       331.23    4.167889  (  2.041079   0.008076  -0.042648)
  10:       929.12   12.587324  ( -0.024410  -2.953194  -1.966056)
  11:       929.15   12.557748  ( -0.066978   1.955920  -2.954258)
  12:      1074.81  1942.810822  ( 44.072835   0.081282  -0.624077)
  13:      1269.59  259.183468  (  0.048361  15.215036   5.261540)
  14:      1269.95  260.083508  (  0.219335  -5.280404  15.236559)
  15:      3107.08  740.134705  (-27.202686  -0.053462   0.381749)
  16:      3186.99  553.867544  ( -0.204494  20.631501 -11.321082)
  17:      3187.08  552.452278  ( -0.259370 -11.306016 -20.604830)

--------------------------
THERMOCHEMISTRY AT 298.15K
--------------------------

Temperature         ... 298.15 K
Pressure            ... 1.00 atm
Total Mass          ... 69.49 AMU

Throughout the following assumptions are being made:
  (1) The electronic state is orbitally nondegenerate
  (2) There are no thermally accessible electronically excited states
  (3) Hindered rotations indicated by low frequency modes are not
      treated as such but are treated as vibrations and this may
      cause some error
  (4) All equations used are the standard statistical mechanics
      equations for an ideal gas
  (5) All vibrations are strictly harmonic

freq.     173.47  E(vib)   ...       0.38
freq.     173.53  E(vib)   ...       0.38
freq.     331.23  E(vib)   ...       0.24
freq.     929.12  E(vib)   ...       0.03
freq.     929.15  E(vib)   ...       0.03
freq.    1074.81  E(vib)   ...       0.02
freq.    1269.59  E(vib)   ...       0.01
freq.    1269.95  E(vib)   ...       0.01
freq.    3107.08  E(vib)   ...       0.00
freq.    3186.99  E(vib)   ...       0.00
freq.    3187.08  E(vib)   ...       0.00

------------
INNER ENERGY
------------

The inner energy is: U= E(el) + E(ZPE) + E(vib) + E(rot) + E(trans)
    E(el)   - is the total energy from the electronic structure calculation
              = E(kin-el) + E(nuc-el) + E(el-el) + E(nuc-nuc)
    E(ZPE)  - the the zero temperature vibrational energy from the frequency calculation
    E(vib)  - the the finite temperature correction to E(ZPE) due to population
              of excited vibrational states
    E(rot)  - is the rotational thermal energy
    E(trans)- is the translational thermal energy

Summary of contributions to the inner energy U:
Electronic energy                ...    -33.86540769 Eh
Zero point energy                ...      0.03561230 Eh      22.35 kcal/mol
Thermal vibrational correction   ...      0.00173906 Eh       1.09 kcal/mol
Thermal rotational correction    ...      0.00141627 Eh       0.89 kcal/mol
Thermal translational correction ...      0.00141627 Eh       0.89 kcal/mol
-----------------------------------------------------------------------
Total thermal energy                    -33.82522379 Eh

Summary of corrections to the electronic energy:
(perhaps to be used in another calculation)
Total thermal correction                  0.00457160 Eh       2.87 kcal/mol
Non-thermal (ZPE) correction              0.03561230 Eh      22.35 kcal/mol
-----------------------------------------------------------------------
Total correction                          0.04018390 Eh      25.22 kcal/mol

--------
ENTHALPY
--------

The enthalpy is H = U + kB*T
                kB is Boltzmann's constant
Total free energy                 ...    -33.82522379 Eh
Thermal Enthalpy correction       ...      0.00094421 Eh       0.59 kcal/mol
-----------------------------------------------------------------------
Total Enthalpy                    ...    -33.82427958 Eh

Vibrational entropy computed according to the QRRHO of S. Grimme
Chem.Eur.J. 2012 18 9955

-------
ENTROPY
-------

The entropy contributions are T*S = T*(S(el)+S(vib)+S(rot)+S(trans)
     S(el)   - electronic entropy
     S(vib)  - vibrational entropy
     S(rot)  - rotational entropy
     S(trans)- translational entropy
The entropies will be listed as mutliplied by the temperature to get
units of energy

Electronic entropy                ...      0.00000000 Eh      0.00 kcal/mol
Vibrational entropy               ...      0.00304757 Eh      1.91 kcal/mol
Rotational entropy                ...      0.01016026 Eh      6.38 kcal/mol
Translational entropy             ...      0.01835566 Eh     11.52 kcal/mol
-----------------------------------------------------------------------
Final entropy term                ...      0.03156349 Eh     19.81 kcal/mol

CAUTION: The rotational entropy is not quite correctly treated here
         because it includes a symmetry number that is not yet correctly
         implemented in ORCA!
For a nonlinear molecule the correct rotational entropy is:
    S(rot) = R*(ln(qrot/sn)+1.5)
    R    = 8.31441 J/mol/K = 1.987191683e-3 kcal/mol/K
    qrot = 31556.7272165
    sn is the rotational symmetry number. We have assumed 3 here
       if it is different for your molecule then you should correct
       the printed rotational entropy by manually evaluating the equation
       as given above

For convenience we print out the resulting values for sn=1 - 12:
 sn= 1  qrot/sn=   31556.7272 T*S(rot)=     7.03 kcal/mol T*S(tot)=    20.46 kcal/mol
 sn= 2  qrot/sn=   15778.3636 T*S(rot)=     6.62 kcal/mol T*S(tot)=    20.05 kcal/mol
 sn= 3  qrot/sn=   10518.9091 T*S(rot)=     6.38 kcal/mol T*S(tot)=    19.81 kcal/mol
 sn= 4  qrot/sn=    7889.1818 T*S(rot)=     6.21 kcal/mol T*S(tot)=    19.64 kcal/mol
 sn= 5  qrot/sn=    6311.3454 T*S(rot)=     6.07 kcal/mol T*S(tot)=    19.50 kcal/mol
 sn= 6  qrot/sn=    5259.4545 T*S(rot)=     5.96 kcal/mol T*S(tot)=    19.40 kcal/mol
 sn= 7  qrot/sn=    4508.1039 T*S(rot)=     5.87 kcal/mol T*S(tot)=    19.30 kcal/mol
 sn= 8  qrot/sn=    3944.5909 T*S(rot)=     5.79 kcal/mol T*S(tot)=    19.23 kcal/mol
 sn= 9  qrot/sn=    3506.3030 T*S(rot)=     5.72 kcal/mol T*S(tot)=    19.16 kcal/mol
 sn=10  qrot/sn=    3155.6727 T*S(rot)=     5.66 kcal/mol T*S(tot)=    19.09 kcal/mol
 sn=11  qrot/sn=    2868.7934 T*S(rot)=     5.61 kcal/mol T*S(tot)=    19.04 kcal/mol
 sn=12  qrot/sn=    2629.7273 T*S(rot)=     5.55 kcal/mol T*S(tot)=    18.98 kcal/mol

-------------------
GIBBS FREE ENTHALPY
-------------------

The Gibbs free enthalpy is G = H - T*S

Total enthalpy                    ...    -33.82427958 Eh
Total entropy correction          ...     -0.03156349 Eh    -19.81 kcal/mol
-----------------------------------------------------------------------
Final Gibbs free enthalpy         ...    -33.85584307 Eh

For completeness - the Gibbs free enthalpy minus the electronic energy
G-E(el)                           ...      0.00956462 Eh      6.00 kcal/mol

                             ****ORCA TERMINATED NORMALLY****
TOTAL RUN TIME: 0 days 0 hours 0 minutes 19 seconds 73 msec
