 Gaussian 09, Revision D.01,
 Gaussian 09:  ES64L-G09RevD.01 24-Apr-2013

 ----------------------------------------------------------------------
 #P guess=read b2plypd3/def2tzvp freq IOp(7/33=1) scf=(tight, direct) i
 ntegral=(grid=ultrafine, Acc2E=12) IOp(2/9=2000) scf=xqc
 ----------------------------------------------------------------------

 ----------------------
 2-Methyl-2-propanamine
 ----------------------
 Symbolic Z-matrix:
 Charge =  0 Multiplicity = 1

                         Standard orientation:
 ---------------------------------------------------------------------
 Center     Atomic      Atomic             Coordinates (Angstroms)
 Number     Number       Type             X           Y           Z
 ---------------------------------------------------------------------
      1          6           0        1.251315   -0.798283   -0.354182
      2          6           0       -0.000000   -0.005099    0.015474
      3          6           0        0.000018    1.339620   -0.722496
      4          6           0       -1.251337   -0.798250   -0.354180
      5          7           0        0.000003    0.158641    1.478242
      6          1           0        2.153371   -0.251777   -0.069307
      7          1           0        1.257743   -1.757203    0.163212
      8          1           0        1.295071   -0.977682   -1.429156
      9          1           0        0.000015    1.203164   -1.805973
     10          1           0       -0.883642    1.923525   -0.456499
     11          1           0        0.883694    1.923501   -0.456500
     12          1           0       -1.257790   -1.757169    0.163214
     13          1           0       -1.295100   -0.977648   -1.429155
     14          1           0       -2.153378   -0.251719   -0.069304
     15          1           0       -0.813511    0.692307    1.767038
     16          1           0        0.813533    0.692285    1.767037
 ---------------------------------------------------------------------

 SCF Done:  E(RB2PLYPD3) =  -213.388669652     A.U. after    1 cycles
 E2(B2PLYPD3) =    -0.2938054761D+00 E(B2PLYPD3) =    -0.21368247512859D+03
 E2(B2PLYPD3) =    -0.2938054761D+00 E(B2PLYPD3) =    -0.21368247512858D+03

 The electronic state is 1-A.
 Alpha  occ. eigenvalues --  -14.80831 -10.64409 -10.59685 -10.59387 -10.59386
 Alpha  occ. eigenvalues --   -1.01610  -0.87485  -0.79022  -0.79021  -0.63395
 Alpha  occ. eigenvalues --   -0.55726  -0.53431  -0.50997  -0.48574  -0.45850
 Alpha  occ. eigenvalues --   -0.44065  -0.42662  -0.41954  -0.39352  -0.38464
 Alpha  occ. eigenvalues --   -0.30212
 Alpha virt. eigenvalues --    0.06246   0.11749   0.11902   0.13040   0.13172
 Alpha virt. eigenvalues --    0.13574   0.15517   0.17961   0.18577   0.20090
 Alpha virt. eigenvalues --    0.20813   0.21494   0.21517   0.22052   0.23452

 Mulliken charges:
               1
     1  C   -0.337855
     2  C    0.226618
     3  C   -0.338668
     4  C   -0.337854
     5  N   -0.530307
     6  H    0.096183
     7  H    0.117575
     8  H    0.098464
     9  H    0.097638
    10  H    0.097584
    11  H    0.097584
    12  H    0.117575
    13  H    0.098464
    14  H    0.096183
    15  H    0.200407
    16  H    0.200408
 Sum of Mulliken charges =  -0.00000

 Dipole moment (field-independent basis, Debye):
    X=              0.0000    Y=              1.1207    Z=             -0.5358  Tot=              1.2422
 Quadrupole moment (field-independent basis, Debye-Ang):
   XX=            -33.5082   YY=            -34.7180   ZZ=            -35.7397
   XY=             -0.0000   XZ=              0.0000   YZ=              2.9609

  Exact polarizability:  59.607  -0.000  58.641   0.000   0.416  57.960
 Approx polarizability:  64.819  -0.000  62.854   0.000   0.930  64.691

                      1                      2                      3
                      A                      A                      A
 Frequencies --    208.6674               270.3505               274.6389
 Red. masses --      1.0137                 1.0742                 1.0415
 Frc consts  --      0.0260                 0.0463                 0.0463
 IR Inten    --      5.3192                23.7740                 0.0066

                      4                      5                      6
                      A                      A                      A
 Frequencies --    289.3043               338.6382               348.7276
 Red. masses --      1.0276                 2.2473                 2.1819
 Frc consts  --      0.0507                 0.1518                 0.1563
 IR Inten    --      6.4042                 1.2245                 4.5851

                      7                      8                      9
                      A                      A                      A
 Frequencies --    421.2288               449.9404               452.2593
 Red. masses --      2.1007                 2.3375                 2.3027
 Frc consts  --      0.2196                 0.2788                 0.2775
 IR Inten    --      0.1848                 8.3854                 6.4687

                     10                     11                     12
                      A                      A                      A
 Frequencies --    752.7046               874.1789               923.4686
 Red. masses --      3.7526                 1.4620                 1.7510
 Frc consts  --      1.2526                 0.6583                 0.8798
 IR Inten    --      1.6829               142.6831                 0.4818

                     13                     14                     15
                      A                      A                      A
 Frequencies --    943.0675               963.4251               966.6634
 Red. masses --      1.7476                 1.7935                 1.2074
 Frc consts  --      0.9157                 0.9808                 0.6647
 IR Inten    --      0.0993                 1.9948                 0.0108

                     16                     17                     18
                      A                      A                      A
 Frequencies --   1020.1549              1064.9503              1137.0596
 Red. masses --      1.3106                 1.3991                 1.3625
 Frc consts  --      0.8036                 0.9349                 1.0379
 IR Inten    --      1.0475                 6.8247                 1.3913

                     19                     20                     21
                      A                      A                      A
 Frequencies --   1252.5722              1284.8156              1359.4271
 Red. masses --      2.6859                 2.8081                 1.8451
 Frc consts  --      2.4829                 2.7311                 2.0090
 IR Inten    --     28.0512                16.8550                 1.6746

                     22                     23                     24
                      A                      A                      A
 Frequencies --   1406.2036              1411.5635              1434.9997
 Red. masses --      1.2543                 1.3476                 1.2379
 Frc consts  --      1.4613                 1.5820                 1.5019
 IR Inten    --     13.9162                13.5473                 4.5640

                     25                     26                     27
                      A                      A                      A
 Frequencies --   1489.5806              1493.4663              1499.1901
 Red. masses --      1.0477                 1.0458                 1.0431
 Frc consts  --      1.3697                 1.3743                 1.3813
 IR Inten    --      0.0129                 0.0607                 0.0031

                     28                     29                     30
                      A                      A                      A
 Frequencies --   1510.9567              1518.9117              1527.2925
 Red. masses --      1.0561                 1.0799                 1.0591
 Frc consts  --      1.4206                 1.4679                 1.4556
 IR Inten    --      3.3589                 6.1129                 9.5226

                     31                     32                     33
                      A                      A                      A
 Frequencies --   1662.3175              3034.2657              3043.1691
 Red. masses --      1.0958                 1.0342                 1.0358
 Frc consts  --      1.7841                 5.6101                 5.6517
 IR Inten    --     33.1416                25.9072                42.5392

                     34                     35                     36
                      A                      A                      A
 Frequencies --   3048.7785              3105.7898              3106.2146
 Red. masses --      1.0371                 1.1014                 1.1018
 Frc consts  --      5.6796                 6.2595                 6.2634
 IR Inten    --      3.4380                 5.1295                10.3339

                     37                     38                     39
                      A                      A                      A
 Frequencies --   3112.1064              3115.7292              3131.4806
 Red. masses --      1.1004                 1.0989                 1.1025
 Frc consts  --      6.2794                 6.2856                 6.3698
 IR Inten    --     37.6091                71.1918                 0.6558

                     40                     41                     42
                      A                      A                      A
 Frequencies --   3136.6801              3473.6935              3556.5680
 Red. masses --      1.1018                 1.0486                 1.0924
 Frc consts  --      6.3868                 7.4549                 8.1415
 IR Inten    --     45.6349                 1.3590                 0.0032

 - Thermochemistry -
 -------------------
 Temperature   298.150 Kelvin.  Pressure   1.00000 Atm.
 Atom     1 has atomic number  6 and mass  12.00000

 Molecular mass:    73.08915 amu.
 Principal axes and moments of inertia in atomic units:
                           1         2         3
     Eigenvalues --   390.49847 393.08014 400.26023
           X            1.00000  -0.00001   0.00000
           Y            0.00001   0.91111   0.41215
           Z           -0.00001  -0.41215   0.91111
 This molecule is an asymmetric top.
 Rotational symmetry number  1.
 Rotational temperatures (Kelvin)      0.22180     0.22035     0.21639
 Rotational constants (GHZ):           4.62163     4.59128     4.50892
 Zero-point vibrational energy     391269.8 (Joules/Mol)
                                   93.51572 (Kcal/Mol)
 Warning -- explicit consideration of   9 degrees of freedom as
           vibrations may cause significant error
 Vibrational temperatures:    300.23   388.97   395.14   416.24   487.22
          (Kelvin)            501.74   606.05   647.36   650.70  1082.97
                             1257.75  1328.66  1356.86  1386.15  1390.81
                             1467.77  1532.22  1635.97  1802.17  1848.56
                             1955.91  2023.21  2030.92  2064.64  2143.17
                             2148.76  2157.00  2173.93  2185.37  2197.43
                             2391.70  4365.63  4378.44  4386.51  4468.53
                             4469.14  4477.62  4482.83  4505.50  4512.98
                             4997.86  5117.10

 Zero-point correction=                           0.149027 (Hartree/Particle)
 Thermal correction to Energy=                    0.155806
 Thermal correction to Enthalpy=                  0.156750
 Thermal correction to Gibbs Free Energy=         0.120048
 Sum of electronic and zero-point Energies=           -213.533448
 Sum of electronic and thermal Energies=              -213.526669
 Sum of electronic and thermal Enthalpies=            -213.525725
 Sum of electronic and thermal Free Energies=         -213.562427

                     E (Thermal)             CV                S
                      KCal/Mol        Cal/Mol-Kelvin    Cal/Mol-Kelvin
 Total                   97.770             25.412             77.247
 Electronic               0.000              0.000              0.000
 Translational            0.889              2.981             38.784
 Rotational               0.889              2.981             25.622
 Vibrational             95.992             19.450             12.842
 Vibration     1          0.642              1.827              2.055
 Vibration     2          0.674              1.728              1.594
 Vibration     3          0.677              1.720              1.567
 Vibration     4          0.686              1.694              1.478
 Vibration     5          0.719              1.598              1.219
 Vibration     6          0.726              1.578              1.172
 Vibration     7          0.784              1.424              0.888
 Vibration     8          0.809              1.361              0.796
 Vibration     9          0.811              1.356              0.789

 Optimization completed.
    -- Stationary point found.
 Normal termination of Gaussian 09 at Sun Nov 13 00:30:09 2022.
