 Q-Chem 4.4, Q-Chem, Inc., Pleasanton, CA (2016)
 Q-Chem 4.4.0 for Intel X86 Linux

User input:
--------------------------------------------------------------
$molecule
0 1
C       0.00000000    0.00000000    0.00000000
H       0.63003260    0.63003260    0.63003260
H      -0.63003260   -0.63003260    0.63003260
H      -0.63003260    0.63003260   -0.63003260
H       0.63003260   -0.63003260   -0.63003260

$end

$rem
JOBTYPE       sp
METHOD        wb97x-d3
UNRESTRICTED  False
BASIS         6-31+g(d,p)
$end

--------------------------------------------------------------

             Standard Nuclear Orientation (Angstroms)
    I     Atom           X                Y                Z
 ----------------------------------------------------------------
    1      C       0.0000000000     0.0000000000     0.0000000000
    2      H       0.6300326000     0.6300326000     0.6300326000
    3      H      -0.6300326000    -0.6300326000     0.6300326000
    4      H      -0.6300326000     0.6300326000    -0.6300326000
    5      H       0.6300326000    -0.6300326000    -0.6300326000
 ----------------------------------------------------------------

    6     -40.5091377925      4.00E-06 Convergence criterion met
 Total energy in the final basis set = -40.5091377925

             Orbital Energies (a.u.) and Symmetries
 --------------------------------------------------------------

 Alpha MOs, Restricted
 -- Occupied --
-10.272  -0.808  -0.488  -0.488  -0.488
  1 A1    2 A1    1 T2    1 T2    1 T2

 Beta MOs, Restricted
 -- Occupied --
-10.272  -0.808  -0.488  -0.488  -0.488
  1 A1    2 A1    1 T2    1 T2    1 T2

          Ground-State Mulliken Net Atomic Charges

     Atom                 Charge (a.u.)
  ----------------------------------------
      1 C                    -0.637081
      2 H                     0.159270
      3 H                     0.159270
      4 H                     0.159270
      5 H                     0.159270
  ----------------------------------------
  Sum of atomic charges =     0.000000

                    Cartesian Multipole Moments
 -----------------------------------------------------------------
    Charge (ESU x 10^10)
                 0.0000
    Dipole Moment (Debye)
         X       0.0000      Y       0.0000      Z       0.0000
       Tot       0.0000
    Quadrupole Moments (Debye-Ang)
        XX      -8.4074     XY       0.0000     YY      -8.4074
        XZ       0.0000     YZ       0.0000     ZZ      -8.4074

 Total job time:  1.15s(wall), 5.49s(cpu)
        *  Thank you very much for using Q-Chem.  Have a nice day.  *
