 Gaussian 03, Revision B.05,
 Gaussian 03:  x86-Linux-G03RevB.05 24-Oct-2003

 ------------------------------------
 # cbs-qb3 nosym optcyc=100 scf=tight
 ------------------------------------

 --------
 ethylene
 --------
 Symbolic Z-matrix:
 Charge =  0 Multiplicity = 1

 SCF Done:  E(RB+HF-LYP) =  -78.6139652306     A.U. after   10 cycles
 SCF Done:  E(RB+HF-LYP) =  -78.6139798503     A.U. after    7 cycles
 Optimization completed.
    -- Stationary point found.
 Normal termination of Gaussian 03 at Fri Feb  9 00:55:08 2007.

 -------------------------------------------------------
 #N Geom=AllCheck Guess=Read SCRF=Check B3LYP/CBSB7 Freq
 -------------------------------------------------------

 ethylene
 --------
 Redundant internal coordinates taken from checkpoint file:
 test.chk
 Charge =  0 Multiplicity = 1

 SCF Done:  E(RB+HF-LYP) =  -78.6139798503     A.U. after    1 cycles

  Exact polarizability:  29.753   0.000  12.412   5.213   0.000  24.635
 Approx polarizability:  43.240   0.000  16.331  10.290   0.000  33.138

                     1                      2                      3
                    A"                     A'                     A'
 Frequencies --   834.4965               973.3064               975.3619
 Red. masses --     1.0428                 1.4548                 1.2019
 Frc consts  --     0.4279                 0.8120                 0.6737
 IR Inten    --     0.6527                14.4845                85.7223

                     4                      5                      6
                    A'                     A"                     A"
 Frequencies --  1067.1230              1238.4578              1379.4504
 Red. masses --     1.0078                 1.5277                 1.2133
 Frc consts  --     0.6762                 1.3806                 1.3603
 IR Inten    --     0.0022                 0.0000                 0.0002

                     7                      8                      9
                    A"                     A"                     A"
 Frequencies --  1472.2859              1691.3375              3121.5505
 Red. masses --     1.1120                 3.2037                 1.0478
 Frc consts  --     1.4201                 5.3996                 6.0153
 IR Inten    --     9.4631                 0.0000                19.2886

                    10                     11                     12
                    A"                     A"                     A"
 Frequencies --  3136.6878              3192.4435              3220.9589
 Red. masses --     1.0735                 1.1139                 1.1175
 Frc consts  --     6.2232                 6.6888                 6.8309
 IR Inten    --     0.0145                 0.0502                30.5979

 - Thermochemistry -
 -------------------
 Temperature   298.150 Kelvin.  Pressure   1.00000 Atm.
 Atom  1 has atomic number  6 and mass  12.00000

 Molecular mass:    28.03130 amu.
 Principal axes and moments of inertia in atomic units:
                           1         2         3
     EIGENVALUES --    12.24771  59.69573  71.94343
           X            0.84871  -0.52886   0.00000
           Y            0.00000   0.00000   1.00000
           Z            0.52886   0.84871   0.00000
 This molecule is an asymmetric top.
 Rotational symmetry number  1.
 Rotational temperatures (Kelvin)      7.07184     1.45092     1.20392
 Rotational constants (GHZ):         147.35338    30.23234    25.08556
 Zero-point vibrational energy     133404.3 (Joules/Mol)
                                   31.88440 (Kcal/Mol)
 Vibrational temperatures:   1200.65  1400.37  1403.33  1535.35  1781.86
          (Kelvin)           1984.72  2118.29  2433.45  4491.21  4512.99
                             4593.21  4634.24

 Zero-point correction=                           0.050811 (Hartree/Particle)
 Thermal correction to Energy=                    0.053852
 Thermal correction to Enthalpy=                  0.054797
 Thermal correction to Gibbs Free Energy=         0.028634
 Sum of electronic and zero-point Energies=            -78.563169
 Sum of electronic and thermal Energies=               -78.560127
 Sum of electronic and thermal Enthalpies=             -78.559183
 Sum of electronic and thermal Free Energies=          -78.585346

                     E (Thermal)             CV                S
                      KCal/Mol        Cal/Mol-Kelvin    Cal/Mol-Kelvin
 Total                   33.793              8.094             55.064
 Electronic               0.000              0.000              0.000
 Translational            0.889              2.981             35.927
 Rotational               0.889              2.981             18.604
 Vibrational             32.015              2.133              0.533

 Optimization completed.
    -- Stationary point found.
 Normal termination of Gaussian 03 at Fri Feb  9 00:57:29 2007.

 ---------------------------------------------------------
 #N Geom=AllCheck Guess=Read SCRF=Check CCSD(T)/6-31+G(d')
 ---------------------------------------------------------

 ethylene
 --------
 Redundant internal coordinates taken from checkpoint file:
 test.chk
 Charge =  0 Multiplicity = 1

 SCF Done:  E(RHF) =  -78.0344139059     A.U. after    9 cycles
 CCSD(T)= -0.78329252577D+02
 Q=-78.3187175\CCSD=-78.3198685\CCSD(T)=-78.3292526\RMSD=5.167e-09\PG=C
 Normal termination of Gaussian 03 at Fri Feb  9 00:58:17 2007.

 ---------------------------------------------------
 #N Geom=AllCheck Guess=Read SCRF=Check MP4SDQ/CBSB4
 ---------------------------------------------------

 ethylene
 --------
 Redundant internal coordinates taken from checkpoint file:
 test.chk
 Charge =  0 Multiplicity = 1

 SCF Done:  E(RHF) =  -78.0409438676     A.U. after    8 cycles
 Normal termination of Gaussian 03 at Fri Feb  9 00:58:39 2007.

 ----------------------------------------------------------------------
 #N Geom=AllCheck Guess=Read SCRF=Check MP2/CBSB3 CBSExtrap=(NMin=10,Mi
 nPop)
 ----------------------------------------------------------------------

 ethylene
 --------
 Redundant internal coordinates taken from checkpoint file:
 test.chk
 Charge =  0 Multiplicity = 1

                          Input orientation:
 ---------------------------------------------------------------------
 Center     Atomic     Atomic              Coordinates (Angstroms)
 Number     Number      Type              X           Y           Z
 ---------------------------------------------------------------------
    1          6             0        0.001723    0.000000    0.001070
    2          1             0       -0.000181    0.000000    1.086232
    3          1             0        0.975039    0.000000   -0.478762
    4          6             0       -1.124596    0.000000   -0.700778
    5          1             0       -1.120992    0.000000   -1.785781
    6          1             0       -2.097022    0.000000   -0.219491
 ---------------------------------------------------------------------

 SCF Done:  E(RHF) =  -78.0621753979     A.U. after    8 cycles
 E2 =    -0.3287148416D+00 EUMP2 =    -0.78390890239487D+02
 E2(CBS)=      -0.360634 CBS-Int=       0.011841 OIii=       3.032130

 Alpha  occ. eigenvalues --  -11.23039 -11.22862  -1.03554  -0.79244  -0.64274
 Alpha  occ. eigenvalues --   -0.59046  -0.50560  -0.37887
 Alpha virt. eigenvalues --    0.04842   0.06093   0.06300   0.08202   0.10600
 Alpha virt. eigenvalues --    0.12892   0.14042   0.17290   0.18558   0.20401
 Alpha virt. eigenvalues --    0.21926   0.22687   0.23030   0.25440   0.28337

 Mulliken atomic charges:
              1
     1  C   -0.159739
     2  H    0.079953
     3  H    0.079955
     4  C   -0.160472
     5  H    0.080151
     6  H    0.080153
 Sum of Mulliken charges=   0.00000

 Dipole moment (field-independent basis, Debye):
    X=     0.0007    Y=     0.0000    Z=     0.0004  Tot=     0.0008
 Quadrupole moment (field-independent basis, Debye-Ang):
   XX=   -12.2281   YY=   -16.0935   ZZ=   -12.3620
   XY=     0.0000   XZ=     0.1363   YZ=     0.0000

 1\1\GINC-OSCARNODE08\Mixed\CBS-QB3\CBS-QB3\C2H4\CFGOLD\09-Feb-2007\0\\
 # CBS-QB3 NOSYM OPTCYC=100 SCF=TIGHT\\ethylene\\0,1\C,0,0.0017228916,0
 .0000000001,0.0010698921\H,0,-0.0001806925,0.,1.0862322085\H,0,0.97503
 93223,0.,-0.4787617598\C,0,-1.1245960764,-0.0000000001,-0.7007777098\H
 ,0,-1.1209923537,0.,-1.7857810345\H,0,-2.0970215489,0.,-0.2194913106\\
 Version=x86-Linux-G03RevB.05\HF/CbsB3=-78.0621754\E2(CBS)/CbsB3=-0.360
 6339\CBS-Int/CbsB3=0.011841\OIii/CbsB3=3.0321304\MP2/CbsB4=-78.3239513
 \MP4(SDQ)/CbsB4=-78.3518356\MP4(SDQ)/6-31+G(d')=-78.3187175\QCISD(T)/6

 Normal termination of Gaussian 03 at Fri Feb  9 00:59:20 2007.
