 Gaussian 03, Revision B.05,
 Gaussian 03:  x86-Linux-G03RevB.05 24-Oct-2003

 -------------------------------
 # G3 nosym optcyc=100 scf=tight
 -------------------------------

 --------
 ethylene
 --------
 Symbolic Z-matrix:
 Charge =  0 Multiplicity = 1

 SCF Done:  E(RHF) =  -78.0314677765     A.U. after   10 cycles
 SCF Done:  E(RHF) =  -78.0317094066     A.U. after    9 cycles
 SCF Done:  E(RHF) =  -78.0317180886     A.U. after    8 cycles
 Optimization completed.
    -- Stationary point found.
 Normal termination of Gaussian 03 at Sat Feb 10 04:01:41 2007.

 -------------------------------------------------------
 #N Geom=AllCheck Guess=Read SCRF=Check HF/6-31G(d) Freq
 -------------------------------------------------------

 ethylene
 --------
 Redundant internal coordinates taken from checkpoint file:
 test.chk
 Charge =  0 Multiplicity = 1

 SCF Done:  E(RHF) =  -78.0317180886     A.U. after    1 cycles

  Exact polarizability:  28.343   0.000   8.297   5.492   0.000  22.952
 Approx polarizability:  23.044   0.000   8.117   4.497   0.000  18.629

                     1                      2                      3
                     A                      A                      A
 Frequencies --   896.5121              1094.6695              1099.0094
 Red. masses --     1.0426                 1.1612                 1.5193
 Frc consts  --     0.4937                 0.8198                 1.0811
 IR Inten    --     0.2135               101.0431                 0.1589
 Raman Activ --     0.0000                 0.0059                 3.6476

                     4                      5                      6
                     A                      A                      A
 Frequencies --  1154.5702              1352.3388              1496.6139
 Red. masses --     1.0078                 1.5226                 1.2510
 Frc consts  --     0.7915                 1.6406                 1.6509
 IR Inten    --     0.0000                 0.0000                 0.0000
 Raman Activ --     0.0000                 1.2984                46.4758

                     7                      8                      9
                     A                      A                      A
 Frequencies --  1610.0445              1855.6933              3321.6317
 Red. masses --     1.1116                 2.9368                 1.0481
 Frc consts  --     1.6977                 5.9584                 6.8130
 IR Inten    --     5.9177                 0.0000                25.1331
 Raman Activ --     0.0001                16.9973                 0.0067

                    10                     11                     12
                     A                      A                      A
 Frequencies --  3344.9440              3395.4377              3421.4611
 Red. masses --     1.0777                 1.1164                 1.1178
 Frc consts  --     7.1043                 7.5832                 7.7100
 IR Inten    --     0.0008                 0.0051                40.3194
 Raman Activ --   180.3728               125.2388                 0.0133

 - Thermochemistry -
 -------------------
 Temperature   298.150 Kelvin.  Pressure   1.00000 Atm.
 Atom  1 has atomic number  6 and mass  12.00000

 Molecular mass:    28.03130 amu.
 Principal axes and moments of inertia in atomic units:
                           1         2         3
     EIGENVALUES --    12.03361  58.79578  70.82940
           X            0.84871  -0.52886   0.00000
           Y            0.00000   0.00000   1.00000
           Z            0.52886   0.84871   0.00000
 This molecule is an asymmetric top.
 Rotational symmetry number  1.
 Rotational temperatures (Kelvin)      7.19766     1.47313     1.22285
 Rotational constants (GHZ):         149.97502    30.69508    25.48012
 Zero-point vibrational energy     143808.6 (Joules/Mol)
                                   34.37109 (Kcal/Mol)
 Vibrational temperatures:   1289.88  1574.98  1581.23  1661.17  1945.71
          (Kelvin)           2153.29  2316.49  2669.93  4779.08  4812.62
                             4885.27  4922.71

 Zero-point correction=                           0.054774 (Hartree/Particle)
 Thermal correction to Energy=                    0.057750
 Thermal correction to Enthalpy=                  0.058694
 Thermal correction to Gibbs Free Energy=         0.032636
 Sum of electronic and zero-point Energies=            -77.976944
 Sum of electronic and thermal Energies=               -77.973968
 Sum of electronic and thermal Enthalpies=             -77.973024
 Sum of electronic and thermal Free Energies=          -77.999082

                     E (Thermal)             CV                S
                      KCal/Mol        Cal/Mol-Kelvin    Cal/Mol-Kelvin
 Total                   36.239              7.540             54.844
 Electronic               0.000              0.000              0.000
 Translational            0.889              2.981             35.927
 Rotational               0.889              2.981             18.556
 Vibrational             34.461              1.578              0.362

 Optimization completed.
    -- Stationary point found.
 Normal termination of Gaussian 03 at Sat Feb 10 04:02:24 2007.

 ------------------------------------------------------------------
 #N Geom=AllCheck Guess=Read SCRF=Check MP2(Full)/6-31G(d) Opt=RCFC
 ------------------------------------------------------------------

 ethylene
 --------
 Redundant internal coordinates taken from checkpoint file:
 test.chk
 Charge =  0 Multiplicity = 1

 SCF Done:  E(RHF) =  -78.0317180886     A.U. after    1 cycles
 E2 =    -0.2619640754D+00 EUMP2 =    -0.78293682164003D+02
 SCF Done:  E(RHF) =  -78.0311680982     A.U. after    8 cycles
 E2 =    -0.2631138693D+00 EUMP2 =    -0.78294281967559D+02
 SCF Done:  E(RHF) =  -78.0310673207     A.U. after    6 cycles
 E2 =    -0.2632188862D+00 EUMP2 =    -0.78294286206918D+02
 Optimization completed.
    -- Stationary point found.

 1\1\GINC-OSCARNODE07\FOpt\RMP2-FU\6-31G(d)\C2H4\CFGOLD\10-Feb-2007\0\\
 #N GEOM=ALLCHECK GUESS=READ SCRF=CHECK MP2(FULL)/6-31G(D) OPT=RCFC\\et
 hylene\\0,1\C,0.0054505846,-0.0000000035,0.0033966794\H,0.0011866717,0
 .0000000021,1.088231796\H,0.9774291529,0.0000000004,-0.4784156014\C,-1
 .1274580344,0.0000000007,-0.7025653152\H,-1.1231982279,0.000000001,-1.
 787400646\H,-2.0994386045,-0.0000000007,-0.2207566267\\Version=x86-Lin
 ux-G03RevB.05\HF=-78.0310673\MP2=-78.2942862\RMSD=9.067e-09\RMSF=3.809
 e-05\Dipole=-0.0000004,0.,-0.0000002\PG=C02 [C2(C1C1),X(H4)]\\@

 Normal termination of Gaussian 03 at Sat Feb 10 04:04:01 2007.

 ------------------------------------------------------------
 #N Geom=AllCheck Guess=Read SCRF=Check QCISD(T,E4T)/6-31G(d)
 ------------------------------------------------------------

 ethylene
 --------
 Redundant internal coordinates taken from checkpoint file:
 test.chk
 Charge =  0 Multiplicity = 1

 SCF Done:  E(RHF) =  -78.0310673207     A.U. after    1 cycles
 Normal termination of Gaussian 03 at Sat Feb 10 04:05:12 2007.

 ----------------------------------------------------
 #N Geom=AllCheck Guess=Read SCRF=Check MP4/6-31+G(d)
 ----------------------------------------------------

 ethylene
 --------
 Redundant internal coordinates taken from checkpoint file:
 test.chk
 Charge =  0 Multiplicity = 1

 SCF Done:  E(RHF) =  -78.0353440951     A.U. after    9 cycles
 Normal termination of Gaussian 03 at Sat Feb 10 04:05:41 2007.

 ethylene
 --------
 Redundant internal coordinates taken from checkpoint file:
 test.chk
 Charge =  0 Multiplicity = 1

 SCF Done:  E(RHF) =  -78.0424890113     A.U. after    8 cycles
 Normal termination of Gaussian 03 at Sat Feb 10 04:06:52 2007.

                          Input orientation:
 ---------------------------------------------------------------------
 Center     Atomic     Atomic              Coordinates (Angstroms)
 Number     Number      Type              X           Y           Z
 ---------------------------------------------------------------------
    1          6             0        0.005451    0.000000    0.003397
    2          1             0        0.001187    0.000000    1.088232
    3          1             0        0.977429    0.000000   -0.478416
    4          6             0       -1.127458    0.000000   -0.702565
    5          1             0       -1.123198    0.000000   -1.787401
    6          1             0       -2.099439    0.000000   -0.220757
 ---------------------------------------------------------------------

 SCF Done:  E(RHF) =  -78.0620577053     A.U. after    9 cycles
 E2 =    -0.4144775415D+00 EUMP2 =    -0.78476535246834D+02

 Alpha  occ. eigenvalues --  -11.23163 -11.22994  -1.03333  -0.79334  -0.64230
 Alpha  occ. eigenvalues --   -0.58903  -0.50722  -0.37706
 Alpha virt. eigenvalues --    0.04839   0.06089   0.06300   0.08198   0.10528
 Alpha virt. eigenvalues --    0.12912   0.14040   0.17277   0.18560   0.20399
 Alpha virt. eigenvalues --    0.21929   0.22560   0.23018   0.25423   0.28358

 Mulliken atomic charges:
              1
     1  C   -0.167586
     2  H    0.083793
     3  H    0.083793
     4  C   -0.167585
     5  H    0.083793
     6  H    0.083793
 Sum of Mulliken charges=   0.00000

 Dipole moment (field-independent basis, Debye):
    X=     0.0000    Y=     0.0000    Z=     0.0000  Tot=     0.0000
 Quadrupole moment (field-independent basis, Debye-Ang):
   XX=   -12.2195   YY=   -16.1346   ZZ=   -12.3573
   XY=     0.0000   XZ=     0.1404   YZ=     0.0000

 Normal termination of Gaussian 03 at Sat Feb 10 04:07:51 2007.
