 Q-Chem 4.2, Q-Chem, Inc., Pleasanton, CA (2014).
 Q-Chem 4.2.0 for Intel X86 Linux

User input:
--------------------------------------------------------------
$rem
XC_GRID 000075000434
JOBTYPE sp
EXCHANGE M08SO
SCF_ALGORITHM DIIS_GDM
BASIS gen
GUI=2
UNRESTRICTED TRUE
CORRELATION NONE
$end

$comment
geo is min of a M08SOgrid scan 6 1 2 7 at -105 degrees
$end

$molecule
0 2
C         0.0540002454   -0.5429426250    0.1493380063
C        -1.2108677109    0.2638458564   -0.1627584407
C         1.2946072156    0.2773922345    0.0363887892
H         1.2412898553    1.3658144398    0.0335966427
H         0.1184848072   -1.4157376152   -0.5188267412
H        -0.0278003231   -0.9691561152    1.1656303731
H        -1.1573069409    0.6944022955   -1.1696794126
H        -1.3246494402    1.0920972801    0.5480609493
H        -2.1126499115   -0.3549257188   -0.1055698812
H         2.2796006509   -0.1826823346    0.0237534078
$end

$basis
H  0
S  3 1.00
3.386500000000E+01 2.549380000000E-02
5.094790000000E+00 1.903730000000E-01
1.158790000000E+00 8.521610000000E-01
S  1 1.00
3.258400000000E-01 1.000000000000E+00
S  1 1.00
1.027410000000E-01 1.000000000000E+00
S  1 1.00
3.600000000000E-02 1.000000000000E+00
P  1 1.00
1.500000000000E+00 1.000000000000E+00
P  1 1.00
3.750000000000E-01 1.000000000000E+00
****
C 0
S  6 1.00
4.563240000000E+03 1.966650000000E-03
6.820240000000E+02 1.523060000000E-02
1.549730000000E+02 7.612690000000E-02
4.445530000000E+01 2.608010000000E-01
1.302900000000E+01 6.164620000000E-01
1.827730000000E+00 2.210060000000E-01
S  3 1.00
2.096420000000E+01 1.146600000000E-01
4.803310000000E+00 9.199990000000E-01
1.459330000000E+00 -3.030680000000E-03
S  1 1.00
4.834560000000E-01 1.000000000000E+00
S  1 1.00
1.455850000000E-01 1.000000000000E+00
S  1 1.00
4.380000000000E-02 1.000000000000E+00
P  3 1.00
2.096420000000E+01 4.024870000000E-02
4.803310000000E+00 2.375940000000E-01
1.459330000000E+00 8.158540000000E-01
P  1 1.00
4.834560000000E-01 1.000000000000E+00
P  1 1.00
1.455850000000E-01 1.000000000000E+00
P  1 1.00
4.380000000000E-02 1.000000000000E+00
D  1 1.00
1.252000000000E+00 1.000000000000E+00
D  1 1.00
3.130000000000E-01 1.000000000000E+00
F  1 1.00
8.000000000000E-01 1.000000000000E+00
****
O  0
S  6 1.00
8.588500000000E+03 1.895150000000E-03
1.297230000000E+03 1.438590000000E-02
2.992960000000E+02 7.073200000000E-02
8.737710000000E+01 2.400010000000E-01
2.567890000000E+01 5.947970000000E-01
3.740040000000E+00 2.808020000000E-01
S  3 1.00
4.211750000000E+01 1.138890000000E-01
9.628370000000E+00 9.208110000000E-01
2.853320000000E+00 -3.274470000000E-03
S  1 1.00
9.056610000000E-01 1.000000000000E+00
S  1 1.00
2.556110000000E-01 1.000000000000E+00
S  1 1.00
8.450000000000E-02 1.000000000000E+00
P  3 1.00
4.211750000000E+01 3.651140000000E-02
9.628370000000E+00 2.371530000000E-01
2.853320000000E+00 8.197020000000E-01
P  1 1.00
9.056610000000E-01 1.000000000000E+00
P  1 1.00
2.556110000000E-01 1.000000000000E+00
P  1 1.00
8.450000000000E-02 1.000000000000E+00
D  1 1.00
2.584000000000E+00 1.000000000000E+00
D  1 1.00
6.460000000000E-01 1.000000000000E+00
F  1 1.00
1.400000000000E+00 1.000000000000E+00
****
$end

--------------------------------------------------------------

   13    -118.4141002914      8.77E-06 Convergence criterion met
 Total energy in the final basis set = -118.4141002914
 Final energy is   -118.4141002914
 Total job time:  97.21s(wall), 80.53s(cpu)
        *  Thank you very much for using Q-Chem.  Have a nice day.  *
 Q-Chem 4.2, Q-Chem, Inc., Pleasanton, CA (2014).
 Q-Chem 4.2.0 for Intel X86 Linux

User input:
--------------------------------------------------------------

$molecule
READ
$end

$rem
JOBTYPE Freq
iprint 10000000
XC_GRID 000075000434
EXCHANGE M08SO
BASIS gen
GUI=2
SCF_GUESS READ
$end

$basis
H  0
S  3 1.00
3.386500000000E+01 2.549380000000E-02
5.094790000000E+00 1.903730000000E-01
1.158790000000E+00 8.521610000000E-01
S  1 1.00
3.258400000000E-01 1.000000000000E+00
S  1 1.00
1.027410000000E-01 1.000000000000E+00
S  1 1.00
3.600000000000E-02 1.000000000000E+00
P  1 1.00
1.500000000000E+00 1.000000000000E+00
P  1 1.00
3.750000000000E-01 1.000000000000E+00
****
C 0
S  6 1.00
4.563240000000E+03 1.966650000000E-03
6.820240000000E+02 1.523060000000E-02
1.549730000000E+02 7.612690000000E-02
4.445530000000E+01 2.608010000000E-01
1.302900000000E+01 6.164620000000E-01
1.827730000000E+00 2.210060000000E-01
S  3 1.00
2.096420000000E+01 1.146600000000E-01
4.803310000000E+00 9.199990000000E-01
1.459330000000E+00 -3.030680000000E-03
S  1 1.00
4.834560000000E-01 1.000000000000E+00
S  1 1.00
1.455850000000E-01 1.000000000000E+00
S  1 1.00
4.380000000000E-02 1.000000000000E+00
P  3 1.00
2.096420000000E+01 4.024870000000E-02
4.803310000000E+00 2.375940000000E-01
1.459330000000E+00 8.158540000000E-01
P  1 1.00
4.834560000000E-01 1.000000000000E+00
P  1 1.00
1.455850000000E-01 1.000000000000E+00
P  1 1.00
4.380000000000E-02 1.000000000000E+00
D  1 1.00
1.252000000000E+00 1.000000000000E+00
D  1 1.00
3.130000000000E-01 1.000000000000E+00
F  1 1.00
8.000000000000E-01 1.000000000000E+00
****
O  0
S  6 1.00
8.588500000000E+03 1.895150000000E-03
1.297230000000E+03 1.438590000000E-02
2.992960000000E+02 7.073200000000E-02
8.737710000000E+01 2.400010000000E-01
2.567890000000E+01 5.947970000000E-01
3.740040000000E+00 2.808020000000E-01
S  3 1.00
4.211750000000E+01 1.138890000000E-01
9.628370000000E+00 9.208110000000E-01
2.853320000000E+00 -3.274470000000E-03
S  1 1.00
9.056610000000E-01 1.000000000000E+00
S  1 1.00
2.556110000000E-01 1.000000000000E+00
S  1 1.00
8.450000000000E-02 1.000000000000E+00
P  3 1.00
4.211750000000E+01 3.651140000000E-02
9.628370000000E+00 2.371530000000E-01
2.853320000000E+00 8.197020000000E-01
P  1 1.00
9.056610000000E-01 1.000000000000E+00
P  1 1.00
2.556110000000E-01 1.000000000000E+00
P  1 1.00
8.450000000000E-02 1.000000000000E+00
D  1 1.00
2.584000000000E+00 1.000000000000E+00
D  1 1.00
6.460000000000E-01 1.000000000000E+00
F  1 1.00
1.400000000000E+00 1.000000000000E+00
****
--------------------------------------------------------------

    4    -118.4141003117      6.62E-09 Convergence criterion met
 Total energy in the final basis set = -118.4141003117
    7    -118.4140992652      9.94E-09 Convergence criterion met
 Total energy in the final basis set = -118.4140992652
    8    -118.4140996888      5.50E-09 Convergence criterion met
 Total energy in the final basis set = -118.4140996888
    8    -118.4141008873      6.30E-09 Convergence criterion met
 Total energy in the final basis set = -118.4141008873
    9    -118.4140979063      2.40E-09 Convergence criterion met
 Total energy in the final basis set = -118.4140979063
    9    -118.4140990505      2.41E-09 Convergence criterion met
 Total energy in the final basis set = -118.4140990505
 Total energy in the final basis set = -118.4141005697
    6    -118.4140998934      9.28E-09 Convergence criterion met
 Total energy in the final basis set = -118.4140998934
    7    -118.4140993457      6.85E-09 Convergence criterion met
 Total energy in the final basis set = -118.4140993457
    8    -118.4141001897      3.50E-09 Convergence criterion met
 Total energy in the final basis set = -118.4141001897
    7    -118.4140999174      4.70E-09 Convergence criterion met
 Total energy in the final basis set = -118.4140999174
    7    -118.4141003709      8.65E-09 Convergence criterion met
 Total energy in the final basis set = -118.4141003709
    8    -118.4141005476      4.07E-09 Convergence criterion met
 Total energy in the final basis set = -118.4141005476
    8    -118.4141000212      4.10E-09 Convergence criterion met
 Total energy in the final basis set = -118.4141000212

                    Orbital Energies (a.u.)
 --------------------------------------------------------------

 Alpha MOs
 -- Occupied --
-10.503 -10.498 -10.485  -0.884  -0.765  -0.669  -0.531  -0.521
 -0.480  -0.426  -0.420  -0.412  -0.267

 Beta MOs
 -- Occupied --
-10.499 -10.486 -10.484  -0.878  -0.752  -0.655  -0.523  -0.512
 -0.477  -0.420  -0.417  -0.410

          Ground-State Mulliken Net Atomic Charges

     Atom                 Charge (a.u.)    Spin (a.u.)
  --------------------------------------------------------
      1 C                    -0.228403      -0.112510
      2 C                    -0.612974       0.015209
      3 C                    -0.328935       1.098137
      4 H                     0.146790      -0.052898
      5 H                     0.163952       0.033449
      6 H                     0.169758       0.060862
      7 H                     0.182764       0.001932
      8 H                     0.178037       0.001636
      9 H                     0.167910       0.000455
     10 H                     0.161101      -0.046273
  --------------------------------------------------------
  Sum of atomic charges =     0.000000

                    Cartesian Multipole Moments
 -----------------------------------------------------------------
    Charge (ESU x 10^10)
                 0.0000
    Dipole Moment (Debye)
         X      -0.2019      Y      -0.2274      Z       0.0616
       Tot       0.3103
    Quadrupole Moments (Debye-Ang)
        XX     -21.5930     XY      -0.1380     YY     -21.0379
        XZ      -0.1083     YZ       0.3224     ZZ     -22.1780

             Standard Nuclear Orientation (Angstroms)
    I     Atom           X                Y                Z
 ----------------------------------------------------------------
    1      C       0.0806837508    -0.5669863561     0.0316488110
    2      C      -1.2181477357     0.2442550028    -0.0242709546
    3      C       1.2946681776     0.2983621557    -0.0155340935
    4      H       1.2234485809     1.3654205555     0.1938162693
    5      H       0.1058689581    -1.2950683978    -0.7939635249
    6      H       0.0873763941    -1.1802183306     0.9509426710
    7      H      -1.2523082556     0.8590904360    -0.9314357115
    8      H      -1.2883257496     0.9190022301     0.8382846283
    9      H      -2.1022006986    -0.4021030462    -0.0186529313
   10      H       2.2829156150    -0.1199082616    -0.1900539780
 ----------------------------------------------------------------

 Frequency:        95.40                 228.62                 364.35
 Force Cnst:      0.0055                 0.0343                 0.1572
 Red. Mass:       1.0312                 1.1137                 2.0099
 IR Intens:        1.011                  0.073                  0.530
 Frequency:       508.42                 746.92                 881.79
 Force Cnst:      0.1843                 0.3882                 0.7729
 Red. Mass:       1.2099                 1.1809                 1.6871
 IR Intens:       54.006                  0.376                  0.240
 Frequency:       914.05                1038.61                1087.30
 Force Cnst:      0.7041                 0.8681                 1.5052
 Red. Mass:       1.4304                 1.3658                 2.1610
 IR Intens:        1.147                  1.307                  0.241
 Frequency:      1156.77                1248.59                1346.48
 Force Cnst:      1.4979                 1.0986                 1.5977
 Red. Mass:       1.8999                 1.1961                 1.4957
 IR Intens:        0.177                  0.058                  2.052
 Frequency:      1393.26                1445.03                1453.48
 Force Cnst:      1.4949                 1.4697                 1.3328
 Red. Mass:       1.3070                 1.1946                 1.0708
 IR Intens:        3.714                  2.176                  3.179
 Frequency:      1477.90                1484.37                2924.81
 Force Cnst:      1.3379                 1.3817                 5.4024
 Red. Mass:       1.0396                 1.0643                 1.0719
 IR Intens:        7.748                  4.300                 25.652
 Frequency:      2981.15                2990.42                3056.91
 Force Cnst:      5.6833                 5.4596                 6.0654
 Red. Mass:       1.0854                 1.0362                 1.1017
 IR Intens:       15.343                 25.203                 28.305
 Frequency:      3067.80                3125.50                3231.81
 Force Cnst:      6.1121                 6.0603                 6.8750
 Red. Mass:       1.1023                 1.0529                 1.1172
 IR Intens:       24.606                 13.225                 11.523

 STANDARD THERMODYNAMIC QUANTITIES AT   298.15 K  AND     1.00 ATM

   This Molecule has  0 Imaginary Frequencies
   Zero point vibrational energy:       54.681 kcal/mol

   Atom    1 Element C  Has Mass   12.00000
   Atom    2 Element C  Has Mass   12.00000
   Atom    3 Element C  Has Mass   12.00000
   Atom    4 Element H  Has Mass    1.00783
   Atom    5 Element H  Has Mass    1.00783
   Atom    6 Element H  Has Mass    1.00783
   Atom    7 Element H  Has Mass    1.00783
   Atom    8 Element H  Has Mass    1.00783
   Atom    9 Element H  Has Mass    1.00783
   Atom   10 Element H  Has Mass    1.00783
   Molecular Mass:    43.054810 amu
   Principal axes and moments of inertia in amu*Bohr^2:
                             1           2           3
    Eigenvalues --       55.74776   198.87236   231.60427
          X               0.99998    -0.00643    -0.00157
          Y               0.00646     0.99981     0.01858
          Z               0.00145    -0.01859     0.99983
   Rotational Symmetry Number is   1
   The Molecule is an Asymmetric Top
   Translational Enthalpy:        0.889 kcal/mol
   Rotational Enthalpy:           0.889 kcal/mol
   Vibrational Enthalpy:         56.036 kcal/mol
   gas constant (RT):             0.592 kcal/mol
   Translational Entropy:        37.206  cal/mol.K
   Rotational Entropy:           22.467  cal/mol.K
   Vibrational Entropy:           8.039  cal/mol.K

   Total Enthalpy:               58.406 kcal/mol
   Total Entropy:                67.711  cal/mol.K

 Total job time:  4242.44s(wall), 3557.14s(cpu)
        *  Thank you very much for using Q-Chem.  Have a nice day.  *
