 Gaussian 03, Revision D.01,
 Gaussian 03:  AM64L-G03RevD.01 13-Oct-2005

 ----------------------------------------------------------------------
 #P iop(7/33=1) opt=calcfc freq b3lyp geom=connectivity scf=tight nosym
  scfcyc=6000 gen
 ----------------------------------------------------------------------

 -------------------
 Title Card Required
 -------------------
 Symbolic Z-matrix:
 Charge =  0 Multiplicity = 3

 SCF Done:  E(UB+HF-LYP) =  -150.378486299     A.U. after   10 cycles
 SCF Done:  E(UB+HF-LYP) =  -150.378487701     A.U. after    6 cycles
 Optimization completed.
    -- Stationary point found.
 Normal termination of Gaussian 03 at Tue Aug  4 14:47:31 2009.

 ---------------------------------------------------------------------
 #P Geom=AllCheck Guess=Read SCRF=Check Test GenChk UB3LYP/ChkBas Freq
 ---------------------------------------------------------------------

 Title Card Required
 -------------------
 Redundant internal coordinates taken from checkpoint file:
 O2.chk
 Charge =  0 Multiplicity = 3

                          Input orientation:
 ---------------------------------------------------------------------
 Center     Atomic     Atomic              Coordinates (Angstroms)
 Number     Number      Type              X           Y           Z
 ---------------------------------------------------------------------
    1          8             0        0.000000    0.000000    0.000494
    2          8             0        0.000000    0.000000    1.205134
 ---------------------------------------------------------------------

 SCF Done:  E(UB+HF-LYP) =  -150.378487701     A.U. after    1 cycles

 Alpha  occ. eigenvalues --  -19.29357 -19.29339  -1.31968  -0.84910  -0.57712
 Alpha  occ. eigenvalues --   -0.57712  -0.56343  -0.32077  -0.32077
 Alpha virt. eigenvalues --    0.07916   0.08180   0.12637   0.12637   0.19087
 Alpha virt. eigenvalues --    0.20243   0.20243   0.24621   0.33411   0.88193
 Alpha virt. eigenvalues --    0.91679   0.91679   0.93152   0.99307   0.99307

  Beta  occ. eigenvalues --  -19.26291 -19.26258  -1.26314  -0.75990  -0.52452
  Beta  occ. eigenvalues --   -0.47495  -0.47495
  Beta virt. eigenvalues --   -0.12707  -0.12707   0.08542   0.09187   0.13502
  Beta virt. eigenvalues --    0.13502   0.19031   0.21483   0.21483   0.28391
  Beta virt. eigenvalues --    0.34092   0.89361   0.94127   0.95817   0.95817

 Mulliken atomic charges:
              1
     1  O    0.000000
     2  O    0.000000
 Sum of Mulliken charges=   0.00000

 Dipole moment (field-independent basis, Debye):
    X=     0.0000    Y=     0.0000    Z=     0.0000  Tot=     0.0000
 Quadrupole moment (field-independent basis, Debye-Ang):
   XX=   -10.1147   YY=   -10.1147   ZZ=   -10.6253
   XY=     0.0000   XZ=     0.0000   YZ=     0.0000

  Exact polarizability:   6.216   0.000   6.216   0.000   0.000  14.649
 Approx polarizability:   7.411   0.000   7.411   0.000   0.000  24.998

                     1
                    SGG
 Frequencies --  1637.9103
 Red. masses --    15.9949
 Frc consts  --    25.2821
 IR Inten    --     0.0000

 - Thermochemistry -
 -------------------
 Temperature   298.150 Kelvin.  Pressure   1.00000 Atm.
 Atom  1 has atomic number  8 and mass  15.99491

 Molecular mass:    31.98983 amu.
 Principal axes and moments of inertia in atomic units:
                           1         2         3
     EIGENVALUES --     0.00000  41.44423  41.44423
           X            0.00000   0.00000   1.00000
           Y            0.00000   1.00000   0.00000
           Z            1.00000   0.00000   0.00000
 This molecule is a prolate symmetric top.
 Rotational symmetry number  2.
 Rotational temperature (Kelvin)      2.08989
 Rotational constant (GHZ):          43.546255
 Zero-point vibrational energy       9796.9 (Joules/Mol)
                                    2.34151 (Kcal/Mol)
 Vibrational temperatures:   2356.58
          (Kelvin)

 Zero-point correction=                           0.003731 (Hartree/Particle)
 Thermal correction to Energy=                    0.006095
 Thermal correction to Enthalpy=                  0.007039
 Thermal correction to Gibbs Free Energy=        -0.016232
 Sum of electronic and zero-point Energies=           -150.374756
 Sum of electronic and thermal Energies=              -150.372393
 Sum of electronic and thermal Enthalpies=            -150.371449
 Sum of electronic and thermal Free Energies=         -150.394720

                     E (Thermal)             CV                S
                      KCal/Mol        Cal/Mol-Kelvin    Cal/Mol-Kelvin
 Total                    3.824              5.014             48.978
 Electronic               0.000              0.000              2.183
 Translational            0.889              2.981             36.321
 Rotational               0.592              1.987             10.467
 Vibrational              2.343              0.046              0.007

 Optimization completed.
    -- Stationary point found.
 Normal termination of Gaussian 03 at Tue Aug  4 14:47:58 2009.
