 Gaussian 09, Revision D.01,
 Gaussian 09:  ES64L-G09RevD.01 24-Apr-2013

 ----------------------------------------------------------------------
 #P guess=read b2plypd3/def2tzvp freq IOp(7/33=1) scf=(tight, direct) i
 ntegral=(grid=ultrafine, Acc2E=12) IOp(2/9=2000) scf=xqc
 ----------------------------------------------------------------------

 -------------
 1,2-Butadiene
 -------------
 Symbolic Z-matrix:
 Charge =  0 Multiplicity = 1

                         Standard orientation:
 ---------------------------------------------------------------------
 Center     Atomic      Atomic             Coordinates (Angstroms)
 Number     Number       Type             X           Y           Z
 ---------------------------------------------------------------------
      1          6           0       -1.738186   -0.368609   -0.000000
      2          6           0       -0.557226    0.563040   -0.000000
      3          6           0        0.689299    0.178025    0.000000
      4          6           0        1.933642   -0.215131   -0.000000
      5          1           0       -2.362845   -0.199263    0.879250
      6          1           0       -2.362846   -0.199264   -0.879249
      7          1           0       -1.416578   -1.408176    0.000001
      8          1           0       -0.763894    1.629381   -0.000000
      9          1           0        2.470496   -0.383315   -0.925617
     10          1           0        2.470495   -0.383314    0.925617
 ---------------------------------------------------------------------

 SCF Done:  E(RB2PLYPD3) =  -155.671947035     A.U. after    1 cycles
 E2(B2PLYPD3) =    -0.2093931133D+00 E(B2PLYPD3) =    -0.15588134014829D+03
 E2(B2PLYPD3) =    -0.2093931133D+00 E(B2PLYPD3) =    -0.15588134014829D+03

 The electronic state is 1-A.
 Alpha  occ. eigenvalues --  -10.63031 -10.62414 -10.61588 -10.61363  -0.92242
 Alpha  occ. eigenvalues --   -0.84775  -0.75440  -0.59450  -0.53937  -0.51213
 Alpha  occ. eigenvalues --   -0.48400  -0.48047  -0.44187  -0.31220  -0.30003
 Alpha virt. eigenvalues --    0.06213   0.07667   0.10082   0.12037   0.13270
 Alpha virt. eigenvalues --    0.15754   0.16111   0.17109   0.19670   0.21968
 Alpha virt. eigenvalues --    0.24079   0.26108   0.26425   0.29153   0.30059

 Mulliken charges:
               1
     1  C   -0.276797
     2  C   -0.159095
     3  C   -0.007436
     4  C   -0.294268
     5  H    0.112974
     6  H    0.112974
     7  H    0.117349
     8  H    0.124471
     9  H    0.134914
    10  H    0.134914
 Sum of Mulliken charges =  -0.00000

 Dipole moment (field-independent basis, Debye):
    X=             -0.4477    Y=             -0.0512    Z=              0.0000  Tot=              0.4506
 Quadrupole moment (field-independent basis, Debye-Ang):
   XX=            -22.8874   YY=            -25.9805   ZZ=            -25.8902
   XY=             -1.2521   XZ=             -0.0000   YZ=              0.0000

  Exact polarizability:  77.376  -7.324  38.980   0.000  -0.000  35.254
 Approx polarizability:  82.235 -11.240  45.439   0.000  -0.000  41.324

                      1                      2                      3
                      A                      A                      A
 Frequencies --    167.6936               209.5523               338.1783
 Red. masses --      1.1182                 3.0560                 2.1193
 Frc consts  --      0.0185                 0.0791                 0.1428
 IR Inten    --      0.7166                 1.5434                 7.9491

                      4                      5                      6
                      A                      A                      A
 Frequencies --    541.4242               572.1623               877.9118
 Red. masses --      1.3263                 3.7598                 1.4189
 Frc consts  --      0.2291                 0.7252                 0.6443
 IR Inten    --      4.4890                 8.9453                45.4288

                      7                      8                      9
                      A                      A                      A
 Frequencies --    886.6820               900.4061              1029.8053
 Red. masses --      1.9879                 1.0780                 1.5014
 Frc consts  --      0.9208                 0.5149                 0.9381
 IR Inten    --     12.1988                17.8704                 0.4409

                     10                     11                     12
                      A                      A                      A
 Frequencies --   1069.5881              1100.2913              1154.0329
 Red. masses --      1.4277                 1.7723                 1.7840
 Frc consts  --      0.9623                 1.2641                 1.3999
 IR Inten    --      1.1018                 2.9589                 0.1341

                     13                     14                     15
                      A                      A                      A
 Frequencies --   1370.6160              1419.5116              1483.6653
 Red. masses --      1.4152                 1.2385                 1.2966
 Frc consts  --      1.5664                 1.4703                 1.6817
 IR Inten    --      7.7987                 3.6213                 7.5233

                     16                     17                     18
                      A                      A                      A
 Frequencies --   1497.8367              1516.2396              2046.4611
 Red. masses --      1.0439                 1.1592                10.0599
 Frc consts  --      1.3799                 1.5702                24.8229
 IR Inten    --      6.5035                 3.6254                39.3964

                     19                     20                     21
                      A                      A                      A
 Frequencies --   3047.6849              3102.3151              3138.0870
 Red. masses --      1.0360                 1.1008                 1.0938
 Frc consts  --      5.6698                 6.2419                 6.3462
 IR Inten    --     32.3209                16.9034                 1.8512

                     22                     23                     24
                      A                      A                      A
 Frequencies --   3143.9931              3153.6989              3220.5138
 Red. masses --      1.0579                 1.0931                 1.1154
 Frc consts  --      6.1609                 6.4052                 6.8159
 IR Inten    --      4.7200                14.5027                 1.4576

 - Thermochemistry -
 -------------------
 Temperature   298.150 Kelvin.  Pressure   1.00000 Atm.
 Atom     1 has atomic number  6 and mass  12.00000

 Molecular mass:    54.04695 amu.
 Principal axes and moments of inertia in atomic units:
                           1         2         3
     Eigenvalues --    52.45664 428.28505 457.27837
           X            1.00000  -0.00159  -0.00000
           Y            0.00159   1.00000  -0.00000
           Z            0.00000   0.00000   1.00000
 This molecule is an asymmetric top.
 Rotational symmetry number  1.
 Rotational temperatures (Kelvin)      1.65115     0.20223     0.18941
 Rotational constants (GHZ):          34.40444     4.21388     3.94670
 Zero-point vibrational energy     221239.5 (Joules/Mol)
                                   52.87750 (Kcal/Mol)
 Warning -- explicit consideration of   5 degrees of freedom as
           vibrations may cause significant error
 Vibrational temperatures:    241.27   301.50   486.56   778.99   823.21
          (Kelvin)           1263.12  1275.74  1295.48  1481.66  1538.90
                             1583.07  1660.39  1972.01  2042.36  2134.66
                             2155.05  2181.53  2944.40  4384.93  4463.53
                             4515.00  4523.50  4537.46  4633.60

 Zero-point correction=                           0.084266 (Hartree/Particle)
 Thermal correction to Energy=                    0.089309
 Thermal correction to Enthalpy=                  0.090253
 Thermal correction to Gibbs Free Energy=         0.057327
 Sum of electronic and zero-point Energies=           -155.797074
 Sum of electronic and thermal Energies=              -155.792031
 Sum of electronic and thermal Enthalpies=            -155.791087
 Sum of electronic and thermal Free Energies=         -155.824013

                     E (Thermal)             CV                S
                      KCal/Mol        Cal/Mol-Kelvin    Cal/Mol-Kelvin
 Total                   56.042             16.690             69.299
 Electronic               0.000              0.000              0.000
 Translational            0.889              2.981             37.884
 Rotational               0.889              2.981             23.845
 Vibrational             54.265             10.728              7.570
 Vibration     1          0.624              1.882              2.461
 Vibration     2          0.642              1.826              2.048
 Vibration     3          0.718              1.599              1.221
 Vibration     4          0.897              1.158              0.562
 Vibration     5          0.928              1.091              0.500

 Optimization completed.
    -- Stationary point found.
 Normal termination of Gaussian 09 at Sun Oct 23 07:35:20 2022.
