 Gaussian 09, Revision D.01,
 Gaussian 09:  ES64L-G09RevD.01 24-Apr-2013

 ----------------------------------------------------------------------
 #P opt=(modredundant, calcfc, noeigentest, maxStep=5) scf=(tight, dire
 ct) integral=(grid=ultrafine, Acc2E=12) guess=read b2plypd3/def2tzvp I
 Op(2/9=2000) scf=xqc
 ----------------------------------------------------------------------

 -------------
 1,2-Butadiene
 -------------
 Symbolic Z-matrix:
 Charge =  0 Multiplicity = 1

 SCF Done:  E(RB2PLYPD3) =  -155.671947035     A.U. after    1 cycles
 E2(B2PLYPD3) =    -0.2093931133D+00 E(B2PLYPD3) =    -0.15588134014829D+03
 E2(B2PLYPD3) =    -0.2093931133D+00 E(B2PLYPD3) =    -0.15588134014829D+03

  Exact polarizability:  77.376  -7.324  38.980   0.000  -0.000  35.254
 Approx polarizability:  82.235 -11.240  45.439   0.000  -0.000  41.324

 Optimization completed.
    -- Stationary point found.
 SCF Done:  E(RB2PLYPD3) =  -155.662899513     A.U. after   12 cycles
 E2(B2PLYPD3) =    -0.2099199411D+00 E(B2PLYPD3) =    -0.15587281945400D+03
 SCF Done:  E(RB2PLYPD3) =  -155.665042696     A.U. after   10 cycles
 E2(B2PLYPD3) =    -0.2098215843D+00 E(B2PLYPD3) =    -0.15587486428056D+03
 SCF Done:  E(RB2PLYPD3) =  -155.668181584     A.U. after   11 cycles
 E2(B2PLYPD3) =    -0.2096773785D+00 E(B2PLYPD3) =    -0.15587785896250D+03
 SCF Done:  E(RB2PLYPD3) =  -155.670119629     A.U. after   11 cycles
 E2(B2PLYPD3) =    -0.2095899428D+00 E(B2PLYPD3) =    -0.15587970957150D+03
 SCF Done:  E(RB2PLYPD3) =  -155.670680767     A.U. after   11 cycles
 E2(B2PLYPD3) =    -0.2094868099D+00 E(B2PLYPD3) =    -0.15588016757713D+03
 SCF Done:  E(RB2PLYPD3) =  -155.670700815     A.U. after    9 cycles
 E2(B2PLYPD3) =    -0.2094741301D+00 E(B2PLYPD3) =    -0.15588017494522D+03
 Optimization completed.
 SCF Done:  E(RB2PLYPD3) =  -155.659288831     A.U. after   12 cycles
 E2(B2PLYPD3) =    -0.2101308831D+00 E(B2PLYPD3) =    -0.15586941971364D+03
 SCF Done:  E(RB2PLYPD3) =  -155.664862741     A.U. after   12 cycles
 E2(B2PLYPD3) =    -0.2098534306D+00 E(B2PLYPD3) =    -0.15587471617112D+03
 SCF Done:  E(RB2PLYPD3) =  -155.669185630     A.U. after   13 cycles
 E2(B2PLYPD3) =    -0.2095163689D+00 E(B2PLYPD3) =    -0.15587870199847D+03
 E2(B2PLYPD3) =    -0.2095362860D+00 E(B2PLYPD3) =    -0.15587879095313D+03
 E2(B2PLYPD3) =    -0.2095364456D+00 E(B2PLYPD3) =    -0.15587879254865D+03
 E2(B2PLYPD3) =    -0.2100451575D+00 E(B2PLYPD3) =    -0.15587011252334D+03
 E2(B2PLYPD3) =    -0.2095984715D+00 E(B2PLYPD3) =    -0.15587830789579D+03
 E2(B2PLYPD3) =    -0.2094487359D+00 E(B2PLYPD3) =    -0.15588022502460D+03
 E2(B2PLYPD3) =    -0.2094691840D+00 E(B2PLYPD3) =    -0.15588025330079D+03
 E2(B2PLYPD3) =    -0.2098861548D+00 E(B2PLYPD3) =    -0.15587355225985D+03
 E2(B2PLYPD3) =    -0.2094729427D+00 E(B2PLYPD3) =    -0.15588049310095D+03
 E2(B2PLYPD3) =    -0.2093889889D+00 E(B2PLYPD3) =    -0.15588132945062D+03
 E2(B2PLYPD3) =    -0.2099155006D+00 E(B2PLYPD3) =    -0.15587248813893D+03
 E2(B2PLYPD3) =    -0.2095931203D+00 E(B2PLYPD3) =    -0.15587911697357D+03
 E2(B2PLYPD3) =    -0.2094829107D+00 E(B2PLYPD3) =    -0.15588011663211D+03
 E2(B2PLYPD3) =    -0.2094738659D+00 E(B2PLYPD3) =    -0.15588012696695D+03
 E2(B2PLYPD3) =    -0.2094737143D+00 E(B2PLYPD3) =    -0.15588012709869D+03
 E2(B2PLYPD3) =    -0.2100794865D+00 E(B2PLYPD3) =    -0.15586964380848D+03
 E2(B2PLYPD3) =    -0.2097174731D+00 E(B2PLYPD3) =    -0.15587687370644D+03
 E2(B2PLYPD3) =    -0.2095446003D+00 E(B2PLYPD3) =    -0.15587872966445D+03
 E2(B2PLYPD3) =    -0.2095368199D+00 E(B2PLYPD3) =    -0.15587879010086D+03
 E2(B2PLYPD3) =    -0.2095359089D+00 E(B2PLYPD3) =    -0.15587879213436D+03
 SCF Done:  E(RB2PLYPD3) =  -155.669255687     A.U. after    7 cycles
 E2(B2PLYPD3) =    -0.2095366626D+00 E(B2PLYPD3) =    -0.15587879234950D+03
 SCF Done:  E(RB2PLYPD3) =  -155.660549729     A.U. after   12 cycles
 E2(B2PLYPD3) =    -0.2099922524D+00 E(B2PLYPD3) =    -0.15587054198132D+03
 SCF Done:  E(RB2PLYPD3) =  -155.668818756     A.U. after   12 cycles
 E2(B2PLYPD3) =    -0.2095661370D+00 E(B2PLYPD3) =    -0.15587838489294D+03
 SCF Done:  E(RB2PLYPD3) =  -155.670715554     A.U. after   12 cycles
 E2(B2PLYPD3) =    -0.2094597970D+00 E(B2PLYPD3) =    -0.15588017535104D+03
 SCF Done:  E(RB2PLYPD3) =  -155.670715721     A.U. after    8 cycles
 E2(B2PLYPD3) =    -0.2094764181D+00 E(B2PLYPD3) =    -0.15588019213912D+03
 SCF Done:  E(RB2PLYPD3) =  -155.670716916     A.U. after    7 cycles
 E2(B2PLYPD3) =    -0.2094757380D+00 E(B2PLYPD3) =    -0.15588019265409D+03
    -- Stationary point found.
 SCF Done:  E(RB2PLYPD3) =  -155.663897733     A.U. after   12 cycles
 E2(B2PLYPD3) =    -0.2098256928D+00 E(B2PLYPD3) =    -0.15587372342626D+03
 SCF Done:  E(RB2PLYPD3) =  -155.671044382     A.U. after   12 cycles
 E2(B2PLYPD3) =    -0.2094553352D+00 E(B2PLYPD3) =    -0.15588049971711D+03
 SCF Done:  E(RB2PLYPD3) =  -155.671944760     A.U. after   11 cycles
 E2(B2PLYPD3) =    -0.2093913512D+00 E(B2PLYPD3) =    -0.15588133611087D+03
 SCF Done:  E(RB2PLYPD3) =  -155.671947783     A.U. after    8 cycles
 E2(B2PLYPD3) =    -0.2093922374D+00 E(B2PLYPD3) =    -0.15588134001994D+03
 Optimization completed.
    -- Stationary point found.

                         Standard orientation:
 ---------------------------------------------------------------------
 Center     Atomic      Atomic             Coordinates (Angstroms)
 Number     Number       Type             X           Y           Z
 ---------------------------------------------------------------------
      1          6           0       -1.738285   -0.368602   -0.000094
      2          6           0       -0.557194    0.562837    0.000122
      3          6           0        0.689345    0.177918   -0.000394
      4          6           0        1.933773   -0.214975    0.000098
      5          1           0       -2.362172   -0.199040    0.879639
      6          1           0       -2.363397   -0.198258   -0.878749
      7          1           0       -1.417170   -1.408313   -0.000366
      8          1           0       -0.764296    1.629077    0.000464
      9          1           0        2.471001   -0.383136   -0.925307
     10          1           0        2.470199   -0.383401    0.925923
 ---------------------------------------------------------------------

 The electronic state is 1-A.
 Alpha  occ. eigenvalues --  -10.63030 -10.62413 -10.61588 -10.61362  -0.92242
 Alpha  occ. eigenvalues --   -0.84776  -0.75440  -0.59452  -0.53939  -0.51213
 Alpha  occ. eigenvalues --   -0.48397  -0.48048  -0.44190  -0.31219  -0.30003
 Alpha virt. eigenvalues --    0.06211   0.07669   0.10083   0.12038   0.13270
 Alpha virt. eigenvalues --    0.15753   0.16111   0.17109   0.19668   0.21968
 Alpha virt. eigenvalues --    0.24078   0.26104   0.26425   0.29153   0.30058

 Mulliken charges:
               1
     1  C   -0.276721
     2  C   -0.159106
     3  C   -0.007452
     4  C   -0.294255
     5  H    0.112948
     6  H    0.112977
     7  H    0.117336
     8  H    0.124454
     9  H    0.134907
    10  H    0.134912
 Sum of Mulliken charges =  -0.00000

 Dipole moment (field-independent basis, Debye):
    X=             -0.4482    Y=             -0.0512    Z=              0.0008  Tot=              0.4512
 Quadrupole moment (field-independent basis, Debye-Ang):
   XX=            -22.8873   YY=            -25.9804   ZZ=            -25.8902
   XY=             -1.2539   XZ=              0.0005   YZ=             -0.0001

 Normal termination of Gaussian 09 at Sun Oct 23 08:29:47 2022.
