 Gaussian 16, Revision A.03,
 Gaussian 16:  ES64L-G16RevA.03 25-Dec-2016

 ----------------------------------------------------------------------
 #P opt=(calcfc, noeigentest, tight, maxcycles=128) cbs-4m scf=(tight,
 direct) integral=(grid=ultrafine, Acc2E=12) nosymm iop(2/9=2000) scf=x
 qc
 ----------------------------------------------------------------------

 ----
 name
 ----
 Symbolic Z-matrix:
 Charge =  0 Multiplicity = 1

 SCF Done:  E(RHF) =  -114.397361773     A.U. after   10 cycles
 SCF Done:  E(RHF) =  -114.398017945     A.U. after   10 cycles
 SCF Done:  E(RHF) =  -114.398019445     A.U. after    8 cycles
 SCF Done:  E(RHF) =  -114.398019448     A.U. after    7 cycles
 Optimization completed.
    -- Stationary point found.
 Normal termination of Gaussian 16 at Sat Aug 15 23:18:55 2020.

 ------------------------------------------------------------
 #P Geom=AllCheck Guess=TCheck SCRF=Check Test HF/3-21G* Freq
 ------------------------------------------------------------

 Structure from the checkpoint file:  "check.chk"
 ----
 name
 ----
 Charge =  0 Multiplicity = 1

 SCF Done:  E(RHF) =  -114.398019448     A.U. after    1 cycles

  Exact polarizability:  15.218   1.465  13.957  -0.000  -0.000  11.568
 Approx polarizability:  11.442   0.651  11.241  -0.000  -0.000   8.836

                      1                      2                      3
                      A                      A                      A
 Frequencies --    359.8084              1090.2900              1152.5650
 Red. masses --      1.0743                 4.6249                 1.1817
 Frc consts  --      0.0819                 3.2392                 0.9249
 IR Inten    --    172.9248                99.1796                19.0813
 Raman Activ --      6.0774                 7.4776                 7.0813

                      4                      5                      6
                      A                      A                      A
 Frequencies --   1253.8145              1480.1157              1637.5371
 Red. masses --      1.2525                 1.2653                 1.1543
 Frc consts  --      1.1601                 1.6332                 1.8237
 IR Inten    --      0.9161                30.4702                 4.9581
 Raman Activ --      9.2080                 6.3512                 6.5520

                      7                      8                      9
                      A                      A                      A
 Frequencies --   1685.5127              1698.0847              3178.9193
 Red. masses --      1.0534                 1.0505                 1.0374
 Frc consts  --      1.7632                 1.7847                 6.1767
 IR Inten    --      3.1532                 3.3367                40.9673
 Raman Activ --     26.2962                24.2228               111.6168

                     10                     11                     12
                      A                      A                      A
 Frequencies --   3218.1199              3294.3252              3868.1378
 Red. masses --      1.1034                 1.0955                 1.0668
 Frc consts  --      6.7329                 7.0045                 9.4049
 IR Inten    --     85.1838                34.0934                 8.7491
 Raman Activ --     62.2894                74.0306                94.3844

 - Thermochemistry -
 -------------------
 Temperature   298.150 Kelvin.  Pressure   1.00000 Atm.
 Atom     1 has atomic number  6 and mass  12.00000

 Molecular mass:    32.02621 amu.
 Principal axes and moments of inertia in atomic units:
                           1         2         3
     Eigenvalues --    13.81555  74.61364  77.22993
           X            0.99905   0.04363  -0.00002
           Y           -0.04363   0.99905   0.00017
           Z            0.00002  -0.00017   1.00000
 This molecule is an asymmetric top.
 Rotational symmetry number  1.
 Rotational temperatures (Kelvin)      6.26931     1.16083     1.12151
 Rotational constants (GHZ):         130.63116    24.18782    23.36842
 Zero-point vibrational energy     143056.8 (Joules/Mol)
                                   34.19140 (Kcal/Mol)
 Warning -- explicit consideration of   1 degrees of freedom as
           vibrations may cause significant error
 Vibrational temperatures:    517.68  1568.68  1658.28  1803.96  2129.56
          (Kelvin)           2356.05  2425.08  2443.17  4573.76  4630.16
                             4739.80  5565.39

 Zero-point correction=                           0.054487 (Hartree/Particle)
 Thermal correction to Energy=                    0.057743
 Thermal correction to Enthalpy=                  0.058687
 Thermal correction to Gibbs Free Energy=         0.031775
 Sum of electronic and zero-point Energies=           -114.343532
 Sum of electronic and thermal Energies=              -114.340277
 Sum of electronic and thermal Enthalpies=            -114.339333
 Sum of electronic and thermal Free Energies=         -114.366244

                     E (Thermal)             CV                S
                      KCal/Mol        Cal/Mol-Kelvin    Cal/Mol-Kelvin
 Total                   36.234              8.417             56.641
 Electronic               0.000              0.000              0.000
 Translational            0.889              2.981             36.324
 Rotational               0.889              2.981             19.016
 Vibrational             34.457              2.456              1.301
 Vibration     1          0.734              1.555              1.123

 Optimization completed.
    -- Stationary point found.
 Normal termination of Gaussian 16 at Sat Aug 15 23:18:56 2020.

 ----------------------------------------------------------
 #P Geom=AllCheck Guess=TCheck SCRF=Check Test MP4SDQ/6-31G
 ----------------------------------------------------------

 Structure from the checkpoint file:  "check.chk"
 ----
 name
 ----
 Charge =  0 Multiplicity = 1

 SCF Done:  E(RHF) =  -114.987591904     A.U. after   10 cycles
 E2 =    -0.2153734875D+00 EUMP2 =    -0.11520296539156D+03
 Normal termination of Gaussian 16 at Sat Aug 15 23:18:58 2020.

 ----------------------------------------------------------------------
 #P Geom=AllCheck Guess=TCheck SCRF=Check Test MP2/6-31+D** CBSExtrap=(
 NMin=5,MinPop)
 ----------------------------------------------------------------------

 Structure from the checkpoint file:  "check.chk"
 ----
 name
 ----
 Charge =  0 Multiplicity = 1

 SCF Done:  E(RHF) =  -115.049779528     A.U. after   11 cycles
 E2 =    -0.3512560712D+00 EUMP2 =    -0.11540103559925D+03
 E2(CBS)=      -0.447388 CBS-Int=       0.024489 OIii=       4.433461
 E2(CBS)=-0.4473882\CBS-Int=-0.4228989\OIii=4.4334608\RMSD=6.994e-09\PG
 Normal termination of Gaussian 16 at Sat Aug 15 23:18:59 2020.

 ----------------------------------------------------------------
 #P Geom=AllCheck Guess=TCheck SCRF=Check Test HF/CBSB1 SCF=Tight
 ----------------------------------------------------------------

 Structure from the checkpoint file:  "check.chk"
 ----
 name
 ----
 Charge =  0 Multiplicity = 1

                          Input orientation:
 ---------------------------------------------------------------------
 Center     Atomic      Atomic             Coordinates (Angstroms)
 Number     Number       Type             X           Y           Z
 ---------------------------------------------------------------------
      1          6           0        0.678305   -0.021939   -0.000014
      2          8           0       -0.755747    0.118663   -0.000062
      3          1           0        1.040076   -0.540096    0.882091
      4          1           0        1.080302    0.978999   -0.000181
      5          1           0        1.040104   -0.540402   -0.881928
      6          1           0       -1.178144   -0.749859    0.000082
 ---------------------------------------------------------------------

 SCF Done:  E(RHF) =  -115.082011051     A.U. after   10 cycles

 Alpha  occ. eigenvalues --  -20.55772 -11.27030  -1.34825  -0.93093  -0.68750
 Alpha  occ. eigenvalues --   -0.61870  -0.59103  -0.50558  -0.45432
 Alpha virt. eigenvalues --    0.04046   0.06317   0.07453   0.08256   0.12753
 Alpha virt. eigenvalues --    0.16097   0.17339   0.19939   0.28154   0.29032
 Alpha virt. eigenvalues --    0.30337   0.34148   0.35868   0.38164   0.39691

 Mulliken charges:
               1
     1  C   -0.183392
     2  O   -0.417200
     3  H    0.097230
     4  H    0.120394
     5  H    0.097230
     6  H    0.285738
 Sum of Mulliken charges =  -0.00000

 Dipole moment (field-independent basis, Debye):
    X=              1.0102    Y=             -1.6343    Z=              0.0003  Tot=              1.9213
 Quadrupole moment (field-independent basis, Debye-Ang):
   XX=            -12.7869   YY=            -12.1680   ZZ=            -13.7894
   XY=              2.4116   XZ=             -0.0004   YZ=             -0.0002

 Normal termination of Gaussian 16 at Sat Aug 15 23:19:00 2020.
