 Gaussian 16, Revision A.03,
 Gaussian 16:  ES64L-G16RevA.03 25-Dec-2016

 ----------------------------------------------------------------------
 #P opt=(calcfc, noeigentest, tight, maxcycles=128) g4mp2 scf=(tight, d
 irect) integral=(grid=ultrafine, Acc2E=12) nosymm iop(2/9=2000) scf=xq
 c
 ----------------------------------------------------------------------

 ----
 name
 ----
 Symbolic Z-matrix:
 Charge =  0 Multiplicity = 1

 SCF Done:  E(RB3LYP) =  -115.730210976     A.U. after   11 cycles
 SCF Done:  E(RB3LYP) =  -115.730344964     A.U. after    8 cycles
 SCF Done:  E(RB3LYP) =  -115.730344998     A.U. after    6 cycles
 Optimization completed.
    -- Stationary point found.
 Normal termination of Gaussian 16 at Sun Aug 16 00:03:11 2020.

 ---------------------------------------------------------------
 #P Geom=AllCheck Guess=TCheck SCRF=Check Test B3LYP/GTBas3 Freq
 ---------------------------------------------------------------

 Structure from the checkpoint file:  "check.chk"
 ----
 name
 ----
 Charge =  0 Multiplicity = 1

 SCF Done:  E(RB3LYP) =  -115.730344998     A.U. after    1 cycles

  Exact polarizability:  18.484   0.901  16.926  -0.000  -0.000  15.505
 Approx polarizability:  23.287   0.714  22.612  -0.000  -0.000  19.688

                      1                      2                      3
                      A                      A                      A
 Frequencies --    325.0209              1057.6698              1094.3480
 Red. masses --      1.0693                 2.1393                 1.7129
 Frc consts  --      0.0666                 1.4100                 1.2086
 IR Inten    --    106.3109               109.7684                 2.4350

                      4                      5                      6
                      A                      A                      A
 Frequencies --   1176.0114              1389.6642              1487.1284
 Red. masses --      1.2730                 1.2812                 1.1344
 Frc consts  --      1.0373                 1.4577                 1.4781
 IR Inten    --      0.8578                27.1145                 4.6553

                      7                      8                      9
                      A                      A                      A
 Frequencies --   1495.2074              1513.5663              2979.5285
 Red. masses --      1.0490                 1.0504                 1.0372
 Frc consts  --      1.3818                 1.4178                 5.4249
 IR Inten    --      1.3722                 3.4448                59.0317

                     10                     11                     12
                      A                      A                      A
 Frequencies --   3023.5087              3105.3553              3831.7982
 Red. masses --      1.1040                 1.0957                 1.0664
 Frc consts  --      5.9462                 6.2253                 9.2251
 IR Inten    --     72.6991                30.7972                17.8649

 - Thermochemistry -
 -------------------
 Temperature   298.150 Kelvin.  Pressure   1.00000 Atm.
 Atom     1 has atomic number  6 and mass  12.00000

 Molecular mass:    32.02621 amu.
 Principal axes and moments of inertia in atomic units:
                           1         2         3
     Eigenvalues --    14.11167  72.57580  75.23906
           X            0.99870   0.05104  -0.00002
           Y           -0.05104   0.99870   0.00017
           Z            0.00002  -0.00017   1.00000
 This molecule is an asymmetric top.
 Rotational symmetry number  1.
 Rotational temperatures (Kelvin)      6.13775     1.19343     1.15118
 Rotational constants (GHZ):         127.88999    24.86698    23.98676
 Zero-point vibrational energy     134453.1 (Joules/Mol)
                                   32.13507 (Kcal/Mol)
 Warning -- explicit consideration of   1 degrees of freedom as
           vibrations may cause significant error
 Vibrational temperatures:    467.63  1521.75  1574.52  1692.02  1999.42
          (Kelvin)           2139.65  2151.27  2177.68  4286.88  4350.15
                             4467.91  5513.10

 Zero-point correction=                           0.051210 (Hartree/Particle)
 Thermal correction to Energy=                    0.054529
 Thermal correction to Enthalpy=                  0.055473
 Thermal correction to Gibbs Free Energy=         0.028471
 Sum of electronic and zero-point Energies=           -115.679135
 Sum of electronic and thermal Energies=              -115.675816
 Sum of electronic and thermal Enthalpies=            -115.674872
 Sum of electronic and thermal Free Energies=         -115.701874

                     E (Thermal)             CV                S
                      KCal/Mol        Cal/Mol-Kelvin    Cal/Mol-Kelvin
 Total                   34.217              8.747             56.830
 Electronic               0.000              0.000              0.000
 Translational            0.889              2.981             36.324
 Rotational               0.889              2.981             18.983
 Vibrational             32.440              2.786              1.523
 Vibration     1          0.709              1.625              1.285

 Optimization completed.
    -- Stationary point found.
 Normal termination of Gaussian 16 at Sun Aug 16 00:03:20 2020.

 ----------------------------------------------------------------------
 #P Geom=AllCheck Guess=TCheck SCRF=Check Test CCSD(T,E4T,FrzG4)/GTBas1
 ----------------------------------------------------------------------

 Structure from the checkpoint file:  "check.chk"
 ----
 name
 ----
 Charge =  0 Multiplicity = 1

 SCF Done:  E(RHF) =  -115.034538242     A.U. after   10 cycles
 E2 =    -0.3114392752D+00 EUMP2 =    -0.11534597751697D+03
 CCSD(T)
 CCSD(T)= -0.11537448156D+03
 4432\CCSD=-115.3680181\CCSD(T)=-115.3744816\RMSD=8.831e-09\PG=C01 [X(C
 Normal termination of Gaussian 16 at Sun Aug 16 00:03:22 2020.

 --------------------------------------------------------------------
 #P Geom=AllCheck Guess=TCheck SCRF=Check Test MP2=FrzG4/GTMP2LargeXP
 --------------------------------------------------------------------

 Structure from the checkpoint file:  "check.chk"
 ----
 name
 ----
 Charge =  0 Multiplicity = 1

 SCF Done:  E(RHF) =  -115.088318072     A.U. after   11 cycles
 E2 =    -0.4254258624D+00 EUMP2 =    -0.11551374393439D+03
 Normal termination of Gaussian 16 at Sun Aug 16 00:03:25 2020.

 -----------------------------------------------------------------
 #P Geom=AllCheck Guess=TCheck SCRF=Check Test HF/GFHFB3 SCF=Tight
 -----------------------------------------------------------------

 Structure from the checkpoint file:  "check.chk"
 ----
 name
 ----
 Charge =  0 Multiplicity = 1

 SCF Done:  E(RHF) =  -115.088057028     A.U. after    9 cycles
 Normal termination of Gaussian 16 at Sun Aug 16 00:03:26 2020.

 -----------------------------------------------------------------
 #P Geom=AllCheck Guess=TCheck SCRF=Check Test HF/GFHFB4 SCF=Tight
 -----------------------------------------------------------------

 Structure from the checkpoint file:  "check.chk"
 ----
 name
 ----
 Charge =  0 Multiplicity = 1

                          Input orientation:
 ---------------------------------------------------------------------
 Center     Atomic      Atomic             Coordinates (Angstroms)
 Number     Number       Type             X           Y           Z
 ---------------------------------------------------------------------
      1          6           0        0.656246   -0.021246   -0.000015
      2          8           0       -0.751175    0.127537   -0.000063
      3          1           0        1.028569   -0.547340    0.891848
      4          1           0        1.083052    0.985500   -0.000183
      5          1           0        1.028597   -0.547649   -0.891684
      6          1           0       -1.140393   -0.751435    0.000084
 ---------------------------------------------------------------------

 SCF Done:  E(RHF) =  -115.098690726     A.U. after    9 cycles

 Alpha  occ. eigenvalues --  -20.55810 -11.27240  -1.35953  -0.92362  -0.69252
 Alpha  occ. eigenvalues --   -0.61911  -0.59436  -0.50345  -0.45135
 Alpha virt. eigenvalues --    0.05683   0.06566   0.07489   0.07596   0.15630
 Alpha virt. eigenvalues --    0.16561   0.18603   0.22587   0.23656   0.25309
 Alpha virt. eigenvalues --    0.27044   0.29417   0.32941   0.36811   0.37734

 Mulliken charges:
               1
     1  C   -0.019864
     2  O   -0.472911
     3  H    0.076029
     4  H    0.092669
     5  H    0.076029
     6  H    0.248048
 Sum of Mulliken charges =  -0.00000

 Dipole moment (field-independent basis, Debye):
    X=              0.9030    Y=             -1.5687    Z=              0.0003  Tot=              1.8100
 Quadrupole moment (field-independent basis, Debye-Ang):
   XX=            -12.9888   YY=            -12.1477   ZZ=            -13.7509
   XY=              2.3041   XZ=             -0.0004   YZ=             -0.0002

 Normal termination of Gaussian 16 at Sun Aug 16 00:03:30 2020.
