 Gaussian 09, Revision D.01,
 Gaussian 09:  AS64L-G09RevD.01 24-Apr-2013

 ----------------------------------------------------------------------
 #P opt=(calcfc, noeigentest, tight) guess=read cbs-qb3 scf=(tight, dir
 ect) integral=(grid=ultrafine, Acc2E=12) scf=xqc iop(2/9=2000)
 ----------------------------------------------------------------------

 ----
 name
 ----
 Symbolic Z-matrix:
 Charge =  0 Multiplicity = 2

 - Thermochemistry -
 -------------------
 Temperature   298.150 Kelvin.  Pressure   1.00000 Atm.
 Atom     1 has atomic number  8 and mass  15.99491

 Molecular mass:   131.07082 amu.
 Principal axes and moments of inertia in atomic units:
                           1         2         3
     Eigenvalues --   942.983891604.822781943.41165
           X            0.99849   0.05472  -0.00362
           Y           -0.05478   0.99834  -0.01779
           Z            0.00264   0.01796   0.99984
 This molecule is an asymmetric top.
 Rotational symmetry number  1.
 Warning -- assumption of classical behavior for rotation
           may cause significant error
 Rotational temperatures (Kelvin)      0.09185     0.05397     0.04457
 Rotational constants (GHZ):           1.91386     1.12457     0.92865
 Zero-point vibrational energy     421321.7 (Joules/Mol)
                                  100.69831 (Kcal/Mol)
 Warning -- explicit consideration of  18 degrees of freedom as
           vibrations may cause significant error
 Vibrational temperatures:     48.14    83.75   120.02   124.62   250.19
          (Kelvin)            278.23   288.22   303.43   355.77   398.68
                              416.99   496.95   523.02   606.07   635.82
                              719.85   821.97   840.19   908.56  1003.13
                             1171.22  1323.81  1381.65  1393.50  1425.10
                             1496.63  1532.86  1654.14  1709.65  1749.86
                             1796.71  2005.94  2019.45  2026.88  2059.86
                             2110.63  2126.89  2142.01  2148.99  2168.57
                             2181.62  2538.72  2588.02  4203.97  4365.76
                             4371.26  4377.74  4453.33  4460.06  4468.58
                             4501.21  4504.55  4523.62  5140.21

 Zero-point correction=                           0.160473 (Hartree/Particle)
 Thermal correction to Energy=                    0.172708
 Thermal correction to Enthalpy=                  0.173653
 Thermal correction to Gibbs Free Energy=         0.121376
 Sum of electronic and zero-point Energies=           -460.812876
 Sum of electronic and thermal Energies=              -460.800640
 Sum of electronic and thermal Enthalpies=            -460.799696
 Sum of electronic and thermal Free Energies=         -460.851973

                     E (Thermal)             CV                S
                      KCal/Mol        Cal/Mol-Kelvin    Cal/Mol-Kelvin
 Total                  108.376             42.267            110.025
 Electronic               0.000              0.000              1.377
 Translational            0.889              2.981             40.525
 Rotational               0.889              2.981             29.465
 Vibrational            106.599             36.305             38.658
 Vibration     1          0.594              1.983              5.613
 Vibration     2          0.596              1.974              4.517
 Vibration     3          0.600              1.961              3.809
 Vibration     4          0.601              1.959              3.735
 Vibration     5          0.627              1.875              2.393
 Vibration     6          0.635              1.849              2.195
 Vibration     7          0.638              1.839              2.130
 Vibration     8          0.643              1.824              2.036
 Vibration     9          0.661              1.767              1.750
 Vibration    10          0.678              1.716              1.552
 Vibration    11          0.686              1.693              1.475
 Vibration    12          0.724              1.585              1.187
 Vibration    13          0.737              1.547              1.107
 Vibration    14          0.784              1.424              0.888
 Vibration    15          0.802              1.379              0.821
 Vibration    16          0.856              1.249              0.657
 Vibration    17          0.927              1.093              0.502
 Vibration    18          0.941              1.066              0.478

 Normal termination of Gaussian 09 at Mon Jul 29 05:42:00 2019.

 ----------------------------------------------------------------
 #P Geom=AllCheck Guess=TCheck SCRF=Check Test CCSD(T)/6-31+G(d')
 ----------------------------------------------------------------

 Structure from the checkpoint file:  "check.chk"
 ----
 name
 ----
 Charge =  0 Multiplicity = 2

                         Standard orientation:
 ---------------------------------------------------------------------
 Center     Atomic      Atomic             Coordinates (Angstroms)
 Number     Number       Type             X           Y           Z
 ---------------------------------------------------------------------
      1          8           0        1.317701   -1.164532   -1.065348
      2          8           0        3.358031    0.422171    0.173125
      3          8           0       -2.046394    1.227013   -0.641782
      4          6           0       -0.632682   -0.511301    0.247799
      5          6           0        0.231281   -0.593386    1.515077
      6          6           0       -1.936196   -1.316119    0.388935
      7          6           0        0.067993    2.030460    0.113681
      8          6           0       -0.979030    0.968936   -0.139730
      9          6           0        0.118179   -1.043715   -0.970035
     10          1           0        1.178924   -0.067405    1.407184
     11          1           0       -0.304021   -0.170156    2.368530
     12          1           0        0.454051   -1.638108    1.745060
     13          1           0       -2.520869   -0.937247    1.229624
     14          1           0       -2.552542   -1.227708   -0.505610
     15          1           0       -1.718406   -2.371854    0.571649
     16          1           0       -0.179131    2.915117   -0.471574
     17          1           0        0.057045    2.300351    1.175010
     18          1           0        1.079986    1.685436   -0.108815
     19          1           0       -0.533963   -1.318250   -1.823219
     20          1           0        2.786949   -0.256640   -0.250157
 ---------------------------------------------------------------------

 SCF Done:  E(UHF) =  -458.146486879     A.U. after   40 cycles
 E2 =    -0.1318120380D+01 EUMP2 =    -0.45946460725870D+03
 CCSD(T)
 Error termination via Lnk1e in /cm/shared/c3ddb/gaussian/09.d01/g09/l913.exe at Mon Jul 29 13:53:11 2019.
