 Gaussian 16, Revision A.03,
 Gaussian 16:  ES64L-G16RevA.03 25-Dec-2016

 ----------------------------------------------------------------------
 #P opt=(noeigentest, tight) rocbs-qb3 scf=(tight, direct) integral=(gr
 id=ultrafine, Acc2E=12) nosymm iop(2/9=2000)
 ----------------------------------------------------------------------

 ----
 name
 ----
 Symbolic Z-matrix:
 Charge =  0 Multiplicity = 1

 SCF Done:  E(RB3LYP) =  -115.757309435     A.U. after   10 cycles
 SCF Done:  E(RB3LYP) =  -115.757391002     A.U. after    8 cycles
 SCF Done:  E(RB3LYP) =  -115.757393306     A.U. after    7 cycles
 SCF Done:  E(RB3LYP) =  -115.757393444     A.U. after    5 cycles
 SCF Done:  E(RB3LYP) =  -115.757393451     A.U. after    5 cycles
 SCF Done:  E(RB3LYP) =  -115.757393452     A.U. after    4 cycles
 Optimization completed.
    -- Stationary point found.
 Normal termination of Gaussian 16 at Mon Aug 17 22:12:20 2020.

 --------------------------------------------------------------
 #P Geom=AllCheck Guess=TCheck SCRF=Check Test B3LYP/CBSB7 Freq
 --------------------------------------------------------------

 Structure from the checkpoint file:  "check.chk"
 ----
 name
 ----
 Charge =  0 Multiplicity = 1

 SCF Done:  E(RB3LYP) =  -115.757393452     A.U. after    1 cycles

  Exact polarizability:  18.495   0.855  17.020  -0.000  -0.000  15.370
 Approx polarizability:  22.745   0.740  21.968  -0.000  -0.000  18.732

                      1                      2                      3
                      A                      A                      A
 Frequencies --    331.0499              1052.7940              1085.3355
 Red. masses --      1.0698                 3.6267                 1.2901
 Frc consts  --      0.0691                 2.3683                 0.8954
 IR Inten    --    122.9962               117.0477                 2.0795

                      4                      5                      6
                      A                      A                      A
 Frequencies --   1167.7089              1379.7829              1488.9986
 Red. masses --      1.2719                 1.2857                 1.1283
 Frc consts  --      1.0218                 1.4421                 1.4739
 IR Inten    --      0.3955                25.1991                 5.5128

                      7                      8                      9
                      A                      A                      A
 Frequencies --   1491.7917              1507.6568              2973.2415
 Red. masses --      1.0466                 1.0503                 1.0376
 Frc consts  --      1.3723                 1.4065                 5.4042
 IR Inten    --      2.5494                 3.8700                65.5003

                     10                     11                     12
                      A                      A                      A
 Frequencies --   3014.8873              3102.5646              3838.3043
 Red. masses --      1.1053                 1.0951                 1.0666
 Frc consts  --      5.9191                 6.2110                 9.2580
 IR Inten    --     82.1930                34.6853                20.9154

 - Thermochemistry -
 -------------------
 Temperature   298.150 Kelvin.  Pressure   1.00000 Atm.
 Atom     1 has atomic number  6 and mass  12.00000

 Molecular mass:    32.02621 amu.
 Principal axes and moments of inertia in atomic units:
                           1         2         3
     Eigenvalues --    14.09109  72.97602  75.61065
           X            0.99872   0.05060  -0.00001
           Y           -0.05060   0.99872   0.00012
           Z            0.00002  -0.00012   1.00000
 This molecule is an asymmetric top.
 Rotational symmetry number  1.
 Rotational temperatures (Kelvin)      6.14672     1.18688     1.14553
 Rotational constants (GHZ):         128.07676    24.73061    23.86887
 Zero-point vibrational energy     134185.8 (Joules/Mol)
                                   32.07118 (Kcal/Mol)
 Warning -- explicit consideration of   1 degrees of freedom as
           vibrations may cause significant error
 Vibrational temperatures:    476.31  1514.74  1561.56  1680.07  1985.20
          (Kelvin)           2142.34  2146.36  2169.18  4277.83  4337.75
                             4463.90  5522.46

 Zero-point correction=                           0.051109 (Hartree/Particle)
 Thermal correction to Energy=                    0.054423
 Thermal correction to Enthalpy=                  0.055367
 Thermal correction to Gibbs Free Energy=         0.028372
 Sum of electronic and zero-point Energies=           -115.706285
 Sum of electronic and thermal Energies=              -115.702971
 Sum of electronic and thermal Enthalpies=            -115.702027
 Sum of electronic and thermal Free Energies=         -115.729022

                     E (Thermal)             CV                S
                      KCal/Mol        Cal/Mol-Kelvin    Cal/Mol-Kelvin
 Total                   34.151              8.759             56.816
 Electronic               0.000              0.000              0.000
 Translational            0.889              2.981             36.324
 Rotational               0.889              2.981             18.992
 Vibrational             32.373              2.798              1.499
 Vibration     1          0.713              1.613              1.255

 Optimization completed.
    -- Stationary point found.
 Normal termination of Gaussian 16 at Mon Aug 17 22:12:25 2020.

 ----------------------------------------------------------------
 #P Geom=AllCheck Guess=TCheck SCRF=Check Test CCSD(T)/6-31+G(d')
 ----------------------------------------------------------------

 Structure from the checkpoint file:  "check.chk"
 ----
 name
 ----
 Charge =  0 Multiplicity = 1

 SCF Done:  E(RHF) =  -115.037354368     A.U. after   11 cycles
 E2 =    -0.3241763136D+00 EUMP2 =    -0.11536153068183D+03
 CCSD(T)
 CCSD(T)= -0.11539093145D+03

 1\1\GINC-C007\SP\RCCSD(T)-FC\6-31+(d')\C1H4O1\RANASD01\17-Aug-2020\0\\
 #P Geom=AllCheck Guess=TCheck SCRF=Check Test CCSD(T)/6-31+G(d')\\name
 \\0,1\C,0,0.6595537104,-0.0213829699,-0.0000109858\O,0,-0.7534592396,0
 .1271679768,-0.0000443729\H,0,1.0282853909,-0.5458076875,0.8921648858\
 H,0,1.0839692367,0.9835576167,-0.0001889487\H,0,1.028295083,-0.5461267
 526,-0.8919948666\H,0,-1.1417489113,-0.7520426235,0.0000615182\\Versio
 n=ES64L-G16RevA.03\HF=-115.0373544\MP2=-115.3615307\MP3=-115.3761953\M
 P4D=-115.3838224\MP4DQ=-115.3801772\MP4SDQ=-115.38296\CCSD=-115.383475
 7\CCSD(T)=-115.3909314\RMSD=2.829e-09\PG=C01 [X(C1H4O1)]\\@
 Normal termination of Gaussian 16 at Mon Aug 17 22:12:27 2020.

 ----------------------------------------------------------
 #P Geom=AllCheck Guess=TCheck SCRF=Check Test MP4SDQ/CBSB4
 ----------------------------------------------------------

 Structure from the checkpoint file:  "check.chk"
 ----
 name
 ----
 Charge =  0 Multiplicity = 1

 SCF Done:  E(RHF) =  -115.050572862     A.U. after   10 cycles
 E2 =    -0.3512763460D+00 EUMP2 =    -0.11540184920801D+03
 Normal termination of Gaussian 16 at Mon Aug 17 22:12:28 2020.

 ----------------------------------------------------------------------
 #P Geom=AllCheck Guess=TCheck SCRF=Check Test MP2/CBSB3 CBSExtrap=(NMi
 n=10,MinPop)
 ----------------------------------------------------------------------

 Structure from the checkpoint file:  "check.chk"
 ----
 name
 ----
 Charge =  0 Multiplicity = 1

                          Input orientation:
 ---------------------------------------------------------------------
 Center     Atomic      Atomic             Coordinates (Angstroms)
 Number     Number       Type             X           Y           Z
 ---------------------------------------------------------------------
      1          6           0        0.659554   -0.021383   -0.000011
      2          8           0       -0.753459    0.127168   -0.000044
      3          1           0        1.028285   -0.545808    0.892165
      4          1           0        1.083969    0.983558   -0.000189
      5          1           0        1.028295   -0.546127   -0.891995
      6          1           0       -1.141749   -0.752043    0.000062
 ---------------------------------------------------------------------

 SCF Done:  E(RHF) =  -115.086731954     A.U. after   10 cycles
 E2 =    -0.4212878316D+00 EUMP2 =    -0.11550801978607D+03
 E2(CBS)=      -0.464412 CBS-Int=       0.013957 OIii=       3.910617

 Alpha  occ. eigenvalues --  -20.55986 -11.27185  -1.35862  -0.92508  -0.69196
 Alpha  occ. eigenvalues --   -0.61937  -0.59373  -0.50451  -0.45236
 Alpha virt. eigenvalues --    0.03921   0.06349   0.07216   0.07965   0.12704
 Alpha virt. eigenvalues --    0.14673   0.15920   0.18208   0.27652   0.28429
 Alpha virt. eigenvalues --    0.28806   0.28999   0.31037   0.32535   0.34034

 Mulliken charges:
               1
     1  C   -0.019642
     2  O   -0.396680
     3  H    0.046853
     4  H    0.068570
     5  H    0.046852
     6  H    0.254047
 Sum of Mulliken charges =  -0.00000

 Dipole moment (field-independent basis, Debye):
    X=              0.9653    Y=             -1.5972    Z=              0.0002  Tot=              1.8662
 Quadrupole moment (field-independent basis, Debye-Ang):
   XX=            -12.9833   YY=            -12.1514   ZZ=            -13.7663
   XY=              2.3383   XZ=             -0.0003   YZ=             -0.0001

 Normal termination of Gaussian 16 at Mon Aug 17 22:12:30 2020.
