 Gaussian 16, Revision A.03,
 Gaussian 16:  ES64L-G16RevA.03 25-Dec-2016

 ---------
 # cbs-qb3
 ---------

 --------------
 Toluene Energy
 --------------
 Symbolic Z-matrix:
 Charge =  0 Multiplicity = 1

 SCF Done:  E(RB3LYP) =  -271.636042406     A.U. after   13 cycles
 Optimization completed.
    -- Stationary point found.
 Normal termination of Gaussian 16 at Thu Feb 23 14:01:33 2017.

 ---------------------------------------------------------
 #N Geom=AllCheck Guess=TCheck SCRF=Check B3LYP/CBSB7 Freq
 ---------------------------------------------------------

 Structure from the checkpoint file:  "TolueneEnergy.chk"
 --------------
 Toluene Energy
 --------------
 Charge =  0 Multiplicity = 1

 SCF Done:  E(RB3LYP) =  -271.636042406     A.U. after    1 cycles

  Exact polarizability:  38.240  -0.615  95.971  -0.000   0.000  82.939
 Approx polarizability:  58.128  -0.822 145.276  -0.000  -0.000 138.432

                      1                      2                      3
                     A"                     A'                     A"
 Frequencies --     27.1297               208.3911               343.7894
 Red. masses --      1.0349                 3.0058                 2.5034
 Frc consts  --      0.0004                 0.0769                 0.1743
 IR Inten    --      0.2528                 2.2909                 0.3408

                      4                      5                      6
                     A"                     A'                     A'
 Frequencies --    415.2582               476.5720               529.2502
 Red. masses --      2.9127                 2.7196                 5.0162
 Frc consts  --      0.2959                 0.3639                 0.8278
 IR Inten    --      0.0067                 9.0473                 0.6225

                      7                      8                      9
                     A"                     A'                     A'
 Frequencies --    637.7455               713.6535               744.5558
 Red. masses --      6.3666                 2.0472                 1.4795
 Frc consts  --      1.5256                 0.6143                 0.4833
 IR Inten    --      0.1011                27.4005                44.4082

                     10                     11                     12
                     A'                     A"                     A'
 Frequencies --    798.9497               855.1000               910.6190
 Red. masses --      4.5106                 1.2496                 1.3057
 Frc consts  --      1.6964                 0.5383                 0.6379
 IR Inten    --      0.8242                 0.0152                 0.5178

                     13                     14                     15
                     A"                     A'                     A"
 Frequencies --    975.7938               999.1735              1000.8590
 Red. masses --      1.3662                 1.2783                 1.4354
 Frc consts  --      0.7665                 0.7519                 0.8472
 IR Inten    --      0.0036                 0.0380                 0.0450

                     16                     17                     18
                     A'                     A'                     A'
 Frequencies --   1017.9059              1051.4547              1062.6686
 Red. masses --      6.1800                 2.2074                 1.5525
 Frc consts  --      3.7727                 1.4378                 1.0329
 IR Inten    --      0.0546                 2.7798                 8.4958

                     19                     20                     21
                     A"                     A"                     A'
 Frequencies --   1111.5776              1180.9738              1203.1584
 Red. masses --      1.4595                 1.1120                 1.1382
 Frc consts  --      1.0625                 0.9138                 0.9708
 IR Inten    --      5.6094                 0.0696                 0.3679

                     22                     23                     24
                     A'                     A"                     A"
 Frequencies --   1229.0257              1327.8938              1355.9573
 Red. masses --      3.0043                 4.9783                 1.3956
 Frc consts  --      2.6737                 5.1720                 1.5118
 IR Inten    --      0.8988                 0.0654                 0.0113

                     25                     26                     27
                     A'                     A"                     A'
 Frequencies --   1414.7773              1470.3977              1491.3623
 Red. masses --      1.2475                 1.5810                 1.0496
 Frc consts  --      1.4712                 2.0139                 1.3755
 IR Inten    --      1.0039                 0.0156                 6.7899

                     28                     29                     30
                     A"                     A'                     A"
 Frequencies --   1503.9857              1529.6640              1626.8101
 Red. masses --      1.3000                 2.2709                 5.3095
 Frc consts  --      1.7326                 3.1307                 8.2791
 IR Inten    --     14.1638                15.4748                 0.4023

                     31                     32                     33
                     A'                     A'                     A'
 Frequencies --   1648.8529              3020.0630              3074.4169
 Red. masses --      5.6557                 1.0407                 1.0944
 Frc consts  --      9.0593                 5.5926                 6.0945
 IR Inten    --      7.5235                29.0583                22.6025

                     34                     35                     36
                     A"                     A'                     A"
 Frequencies --   3100.6270              3150.9395              3152.5481
 Red. masses --      1.1023                 1.0858                 1.0876
 Frc consts  --      6.2438                 6.3514                 6.3685
 IR Inten    --     17.8741                 9.5350                 6.3374

                     37                     38                     39
                     A'                     A"                     A'
 Frequencies --   3165.1635              3173.5855              3186.3136
 Red. masses --      1.0899                 1.0939                 1.0981
 Frc consts  --      6.4331                 6.4912                 6.5683
 IR Inten    --      8.3953                41.8870                16.7988

 - Thermochemistry -
 -------------------
 Temperature   298.150 Kelvin.  Pressure   1.00000 Atm.
 Atom     1 has atomic number  6 and mass  12.00000

 Molecular mass:    92.06260 amu.
 Principal axes and moments of inertia in atomic units:
                           1         2         3
     Eigenvalues --   324.89671 717.151761030.83418
           X           -0.00734   0.00000   0.99997
           Y            0.99997   0.00000   0.00734
           Z            0.00000   1.00000   0.00000
 This molecule is an asymmetric top.
 Rotational symmetry number  1.
 Rotational temperatures (Kelvin)      0.26659     0.12077     0.08402
 Rotational constants (GHZ):           5.55482     2.51654     1.75076
 Zero-point vibrational energy     334278.3 (Joules/Mol)
                                   79.89443 (Kcal/Mol)
 Warning -- explicit consideration of   6 degrees of freedom as
           vibrations may cause significant error
 Vibrational temperatures:     39.03   299.83   494.64   597.46   685.68
          (Kelvin)            761.47   917.57  1026.79  1071.25  1149.51
                             1230.30  1310.18  1403.95  1437.59  1440.01
                             1464.54  1512.81  1528.94  1599.31  1699.16
                             1731.08  1768.29  1910.54  1950.92  2035.55
                             2115.57  2145.74  2163.90  2200.85  2340.62
                             2372.33  4345.20  4423.40  4461.11  4533.50
                             4535.81  4553.96  4566.08  4584.39

 Zero-point correction=                           0.127320 (Hartree/Particle)
 Thermal correction to Energy=                    0.133563
 Thermal correction to Enthalpy=                  0.134507
 Thermal correction to Gibbs Free Energy=         0.096391
 Sum of electronic and zero-point Energies=           -271.508723
 Sum of electronic and thermal Energies=              -271.502480
 Sum of electronic and thermal Enthalpies=            -271.501536
 Sum of electronic and thermal Free Energies=         -271.539652

                     E (Thermal)             CV                S
                      KCal/Mol        Cal/Mol-Kelvin    Cal/Mol-Kelvin
 Total                   83.812             23.276             80.222
 Electronic               0.000              0.000              0.000
 Translational            0.889              2.981             39.471
 Rotational               0.889              2.981             26.976
 Vibrational             82.034             17.314             13.774
 Vibration     1          0.593              1.984              6.029
 Vibration     2          0.642              1.828              2.058
 Vibration     3          0.723              1.588              1.195
 Vibration     4          0.779              1.437              0.908
 Vibration     5          0.833              1.302              0.719
 Vibration     6          0.884              1.185              0.589

 Optimization completed.
    -- Stationary point found.
 Normal termination of Gaussian 16 at Thu Feb 23 14:02:45 2017.

 -----------------------------------------------------------
 #N Geom=AllCheck Guess=TCheck SCRF=Check CCSD(T)/6-31+G(d')
 -----------------------------------------------------------

 Structure from the checkpoint file:  "TolueneEnergy.chk"
 --------------
 Toluene Energy
 --------------
 Charge =  0 Multiplicity = 1

 SCF Done:  E(RHF) =  -269.742777995     A.U. after   14 cycles
 E2 =    -0.9056631311D+00 EUMP2 =    -0.27064844112592D+03
 CCSD(T)= -0.27073576881D+03

 1\1\GINC-NID00118\SP\RCCSD(T)-FC\6-31+(d')\C7H8\LAITCL\23-Feb-2017\0\\
 #N Geom=AllCheck Guess=TCheck SCRF=Check CCSD(T)/6-31+G(d')\\Toluene E
 nergy\\0,1\C,0,0.00438,0.91242,0.\C,0,0.00722,0.19388,1.20014\C,0,0.00
 722,-1.19907,1.20295\C,0,0.00633,-1.90168,0.\C,0,0.00722,-1.19907,-1.2
 0295\C,0,0.00722,0.19388,-1.20014\C,0,-0.02791,2.42229,0.\H,0,0.01176,
 0.73188,2.14306\H,0,0.01184,-1.73554,2.14555\H,0,0.00931,-2.98585,0.\H
 ,0,0.01184,-1.73554,-2.14555\H,0,0.01176,0.73188,-2.14306\H,0,-1.05878
 ,2.79351,0.\H,0,0.46609,2.83186,0.88421\H,0,0.46609,2.83186,-0.88421\\

 7\CCSD=-270.6938499\CCSD(T)=-270.7357688\RMSD=3.423e-09\PG=CS [SG(C3H2
 Normal termination of Gaussian 16 at Thu Feb 23 14:05:12 2017.

 -----------------------------------------------------
 #N Geom=AllCheck Guess=TCheck SCRF=Check MP4SDQ/CBSB4
 -----------------------------------------------------

 Structure from the checkpoint file:  "TolueneEnergy.chk"
 --------------
 Toluene Energy
 --------------
 Charge =  0 Multiplicity = 1

 SCF Done:  E(RHF) =  -269.755032682     A.U. after   12 cycles
 E2 =    -0.9555759113D+00 EUMP2 =    -0.27071060859354D+03
 Normal termination of Gaussian 16 at Thu Feb 23 14:05:26 2017.

 ----------------------------------------------------------------------
 #N Geom=AllCheck Guess=TCheck SCRF=Check MP2/CBSB3 CBSExtrap=(NMin=10,
 MinPop)
 ----------------------------------------------------------------------

 Structure from the checkpoint file:  "TolueneEnergy.chk"
 --------------
 Toluene Energy
 --------------
 Charge =  0 Multiplicity = 1

                         Standard orientation:
 ---------------------------------------------------------------------
 Center     Atomic      Atomic             Coordinates (Angstroms)
 Number     Number       Type             X           Y           Z
 ---------------------------------------------------------------------
      1          6           0        0.004380    0.912421    0.000000
      2          6           0        0.007220    0.193881    1.200140
      3          6           0        0.007220   -1.199069    1.202950
      4          6           0        0.006330   -1.901679   -0.000000
      5          6           0        0.007220   -1.199069   -1.202950
      6          6           0        0.007220    0.193881   -1.200140
      7          6           0       -0.027910    2.422291    0.000000
      8          1           0        0.011760    0.731881    2.143060
      9          1           0        0.011840   -1.735539    2.145550
     10          1           0        0.009310   -2.985849   -0.000000
     11          1           0        0.011840   -1.735539   -2.145550
     12          1           0        0.011760    0.731881   -2.143060
     13          1           0       -1.058780    2.793511    0.000000
     14          1           0        0.466090    2.831861    0.884210
     15          1           0        0.466090    2.831861   -0.884210
 ---------------------------------------------------------------------

 SCF Done:  E(RHF) =  -269.822277123     A.U. after   11 cycles
 E2 =    -0.1113284340D+01 EUMP2 =    -0.27093556146332D+03
 E2(CBS)=      -1.219504 CBS-Int=       0.037084 OIii=       8.968778

 The electronic state is 1-A'.
 Alpha  occ. eigenvalues --  -11.24049 -11.23211 -11.23195 -11.22787 -11.22747
 Alpha  occ. eigenvalues --  -11.22738 -11.22301  -1.15166  -1.04338  -1.01097
 Alpha  occ. eigenvalues --   -0.93219  -0.82416  -0.79728  -0.69240  -0.63252
 Alpha  occ. eigenvalues --   -0.63089  -0.58290  -0.57523  -0.56649  -0.53916
 Alpha  occ. eigenvalues --   -0.48834  -0.48720  -0.48554  -0.33442  -0.32404
 Alpha virt. eigenvalues --    0.03927   0.04929   0.04936   0.06556   0.06700
 Alpha virt. eigenvalues --    0.07073   0.09542   0.10042   0.11122   0.11763
 Alpha virt. eigenvalues --    0.12825   0.13797   0.14277   0.15157   0.17294

 Mulliken charges:
               1
     1  C    0.743453
     2  C   -0.365815
     3  C   -0.301732
     4  C   -0.129057
     5  C   -0.301732
     6  C   -0.365815
     7  C   -0.223242
     8  H    0.137367
     9  H    0.157217
    10  H    0.158350
    11  H    0.157217
    12  H    0.137367
    13  H    0.054074
    14  H    0.071173
    15  H    0.071173
 Sum of Mulliken charges =  -0.00000

 Dipole moment (field-independent basis, Debye):
    X=             -0.0331    Y=              0.4032    Z=             -0.0000  Tot=              0.4045
 Quadrupole moment (field-independent basis, Debye-Ang):
   XX=            -47.2862   YY=            -38.5733   ZZ=            -38.8871
   XY=             -0.0667   XZ=             -0.0000   YZ=              0.0000

 Normal termination of Gaussian 16 at Thu Feb 23 14:06:39 2017.
