 Gaussian 09, Revision D.01,
 Gaussian 09:  ES64L-G09RevD.01 24-Apr-2013

 ----------------------------------------------------------------------
 #P guess=read ub2plypd3/def2tzvp freq IOp(7/33=1) scf=(tight, direct)
 integral=(grid=ultrafine, Acc2E=12) IOp(2/9=2000) scf=xqc
 ----------------------------------------------------------------------

 -------
 methoxy
 -------
 Symbolic Z-matrix:
 Charge =  0 Multiplicity = 2

                         Standard orientation:
 ---------------------------------------------------------------------
 Center     Atomic      Atomic             Coordinates (Angstroms)
 Number     Number       Type             X           Y           Z
 ---------------------------------------------------------------------
      1          6           0        0.576214    0.000012   -0.012608
      2          8           0       -0.791316    0.000006   -0.007690
      3          1           0        1.002898   -0.905616   -0.457990
      4          1           0        1.002961    0.905934   -0.457321
      5          1           0        0.867384   -0.000437    1.052479
 ---------------------------------------------------------------------

 SCF Done:  E(UB2PLYPD3) =  -114.889246873     A.U. after    1 cycles
 E2(B2PLYPD3) =    -0.1175855420D+00 E(B2PLYPD3) =    -0.11500683241489D+03
 E2(B2PLYPD3) =    -0.1175855420D+00 E(B2PLYPD3) =    -0.11500683241489D+03

 The electronic state is 2-A.
 Alpha  occ. eigenvalues --  -19.77950 -10.66900  -1.18714  -0.78127  -0.57743
 Alpha  occ. eigenvalues --   -0.54517  -0.52013  -0.41644  -0.37336
 Alpha virt. eigenvalues --    0.08936   0.13477   0.15443   0.15950   0.23966
 Alpha virt. eigenvalues --    0.25761   0.35628   0.42264   0.47318   0.49205
 Alpha virt. eigenvalues --    0.50581   0.54044   0.57551   0.57607   0.75590

  Beta  occ. eigenvalues --  -19.74968 -10.67035  -1.10513  -0.75715  -0.53676
  Beta  occ. eigenvalues --   -0.50310  -0.49271  -0.34824
  Beta virt. eigenvalues --   -0.04107   0.09058   0.14002   0.15980   0.16094
  Beta virt. eigenvalues --    0.24586   0.25945   0.36058   0.43204   0.47893
  Beta virt. eigenvalues --    0.50128   0.50735   0.58194   0.58353   0.61322

 Mulliken charges and spin densities:
               1          2
     1  C   -0.122620  -0.081619
     2  O   -0.243277   0.946118
     3  H    0.111945   0.019233
     4  H    0.111932   0.019200
     5  H    0.142020   0.097067
 Sum of Mulliken charges =  -0.00000   1.00000

 Dipole moment (field-independent basis, Debye):
    X=              1.9691    Y=             -0.0001    Z=              0.1588  Tot=              1.9755
 Quadrupole moment (field-independent basis, Debye-Ang):
   XX=            -13.6021   YY=            -12.7423   ZZ=            -11.6630
   XY=             -0.0001   XZ=              0.1942   YZ=             -0.0002

  Exact polarizability:  20.100  -0.000  18.092   0.084   0.001  15.790
 Approx polarizability:  19.948  -0.000  16.639   0.169  -0.000  16.594

                      1                      2                      3
                      A                      A                      A
 Frequencies --    743.8241               963.8188              1115.2631
 Red. masses --      1.3271                 1.5986                 3.5803
 Frc consts  --      0.4326                 0.8750                 2.6238
 IR Inten    --     67.5634                 0.6471                 9.7405

                      4                      5                      6
                      A                      A                      A
 Frequencies --   1388.9654              1391.2238              1529.9052
 Red. masses --      1.0233                 1.0957                 1.1072
 Frc consts  --      1.1631                 1.2495                 1.5269
 IR Inten    --     16.4546                18.2068                 6.1183

                      7                      8                      9
                      A                      A                      A
 Frequencies --   2940.2784              3018.1221              3062.5407
 Red. masses --      1.0423                 1.0748                 1.1029
 Frc consts  --      5.3089                 5.7685                 6.0947
 IR Inten    --      0.0301                37.5230                29.3060

 - Thermochemistry -
 -------------------
 Temperature   298.150 Kelvin.  Pressure   1.00000 Atm.
 Atom     1 has atomic number  6 and mass  12.00000

 Molecular mass:    31.01839 amu.
 Principal axes and moments of inertia in atomic units:
                           1         2         3
     Eigenvalues --    11.40778  64.51214  64.91527
           X            1.00000  -0.00000   0.00050
           Y            0.00000   1.00000   0.00001
           Z           -0.00050  -0.00001   1.00000
 This molecule is an asymmetric top.
 Rotational symmetry number  1.
 Rotational temperatures (Kelvin)      7.59252     1.34260     1.33426
 Rotational constants (GHZ):         158.20269    27.97522    27.80149
 Zero-point vibrational energy      96622.0 (Joules/Mol)
                                   23.09322 (Kcal/Mol)
 Vibrational temperatures:   1070.20  1386.72  1604.61  1998.41  2001.66
          (Kelvin)           2201.19  4230.40  4342.40  4406.31

 Zero-point correction=                           0.036801 (Hartree/Particle)
 Thermal correction to Energy=                    0.039816
 Thermal correction to Enthalpy=                  0.040760
 Thermal correction to Gibbs Free Energy=         0.013874
 Sum of electronic and zero-point Energies=           -114.970031
 Sum of electronic and thermal Energies=              -114.967017
 Sum of electronic and thermal Enthalpies=            -114.966072
 Sum of electronic and thermal Free Energies=         -114.992959

                     E (Thermal)             CV                S
                      KCal/Mol        Cal/Mol-Kelvin    Cal/Mol-Kelvin
 Total                   24.985              7.682             56.587
 Electronic               0.000              0.000              1.377
 Translational            0.889              2.981             36.229
 Rotational               0.889              2.981             18.508
 Vibrational             23.207              1.720              0.473

 Optimization completed.
    -- Stationary point found.
 Normal termination of Gaussian 09 at Sun Oct 23 07:14:15 2022.
