 Gaussian 03, Revision D.01,
 Gaussian 03:  AM64L-G03RevD.01 13-Oct-2005

 -------------------------------------
 # freq nosymm b3lyp/cbsb7 iop(7/33=1)
 -------------------------------------

 ------------
 Toluene Freq
 ------------
 Symbolic Z-matrix:
 Charge =  0 Multiplicity = 1

                          Input orientation:
 ---------------------------------------------------------------------
 Center     Atomic     Atomic              Coordinates (Angstroms)
 Number     Number      Type              X           Y           Z
 ---------------------------------------------------------------------
    1          6             0        0.008270    0.719970    0.000000
    2          6             0        0.011110    0.001430    1.200140
    3          6             0        0.011110   -1.391520    1.202950
    4          6             0        0.010220   -2.094130    0.000000
    5          6             0        0.011110   -1.391520   -1.202950
    6          6             0        0.011110    0.001430   -1.200140
    7          6             0       -0.024020    2.229840    0.000000
    8          1             0        0.015650    0.539430    2.143060
    9          1             0        0.015730   -1.927990    2.145550
   10          1             0        0.013200   -3.178300    0.000000
   11          1             0        0.015730   -1.927990   -2.145550
   12          1             0        0.015650    0.539430   -2.143060
   13          1             0       -1.054890    2.601060    0.000000
   14          1             0        0.469980    2.639410    0.884210
   15          1             0        0.469980    2.639410   -0.884210
 ---------------------------------------------------------------------

 SCF Done:  E(RB+HF-LYP) =  -271.636052740     A.U. after   14 cycles

 Alpha  occ. eigenvalues --  -10.18118 -10.17130 -10.17124 -10.16919 -10.16880
 Alpha  occ. eigenvalues --  -10.16877 -10.16776  -0.85703  -0.77241  -0.74475
 Alpha  occ. eigenvalues --   -0.68652  -0.60548  -0.58481  -0.51253  -0.46159
 Alpha  occ. eigenvalues --   -0.45491  -0.42228  -0.42063  -0.40982  -0.38747
 Alpha  occ. eigenvalues --   -0.35673  -0.34366  -0.34055  -0.25336  -0.24458
 Alpha virt. eigenvalues --   -0.00774  -0.00571   0.04543   0.06214   0.07503
 Alpha virt. eigenvalues --    0.09869   0.10865   0.11029   0.13654   0.13858
 Alpha virt. eigenvalues --    0.16612   0.20541   0.27002   0.27488   0.28470

 Mulliken atomic charges:
              1
     1  C   -0.102666
     2  C   -0.075489
     3  C   -0.092963
     4  C   -0.093699
     5  C   -0.092963
     6  C   -0.075489
     7  C   -0.258872
     8  H    0.083181
     9  H    0.091753
    10  H    0.091720
    11  H    0.091753
    12  H    0.083181
    13  H    0.126418
    14  H    0.112068
    15  H    0.112068
 Sum of Mulliken charges=   0.00000

 Dipole moment (field-independent basis, Debye):
    X=    -0.0382    Y=     0.3497    Z=     0.0000  Tot=     0.3517
 Quadrupole moment (field-independent basis, Debye-Ang):
   XX=   -45.9590   YY=   -38.5152   ZZ=   -38.7545
   XY=    -0.0915   XZ=     0.0000   YZ=     0.0000

  Exact polarizability:  38.239  -0.615  95.973   0.000   0.000  82.940
 Approx polarizability:  58.128  -0.822 145.277   0.000   0.000 138.432

                     1                      2                      3
                    A"                     A'                     A"
 Frequencies --    29.0180               208.9845               343.4178
 Red. masses --     1.0347                 3.0098                 2.5015
 Frc consts  --     0.0005                 0.0774                 0.1738
 IR Inten    --     0.2523                 2.2865                 0.3416

                     4                      5                      6
                    A"                     A'                     A'
 Frequencies --   414.8143               476.5615               529.3504
 Red. masses --     2.9090                 2.7134                 5.0128
 Frc consts  --     0.2949                 0.3631                 0.8276
 IR Inten    --     0.0063                 9.1533                 0.6318

                     7                      8                      9
                    A"                     A'                     A'
 Frequencies --   637.7320               713.5041               744.5144
 Red. masses --     6.3693                 2.0499                 1.4796
 Frc consts  --     1.5262                 0.6149                 0.4832
 IR Inten    --     0.1008                27.3374                44.4469

                    10                     11                     12
                    A'                     A"                     A'
 Frequencies --   799.0852               854.0671               910.7383
 Red. masses --     4.5130                 1.2496                 1.3053
 Frc consts  --     1.6979                 0.5371                 0.6379
 IR Inten    --     0.8134                 0.0154                 0.4623

                    13                     14                     15
                    A"                     A'                     A"
 Frequencies --   975.2450               999.2774              1000.2226
 Red. masses --     1.3668                 1.2787                 1.4353
 Frc consts  --     0.7659                 0.7523                 0.8460
 IR Inten    --     0.0037                 0.0394                 0.0412

                    16                     17                     18
                    A'                     A'                     A'
 Frequencies --  1017.9931              1051.7339              1062.9136
 Red. masses --     6.1833                 2.2099                 1.5504
 Frc consts  --     3.7753                 1.4402                 1.0320
 IR Inten    --     0.0545                 2.8494                 8.3792

                    19                     20                     21
                    A"                     A"                     A'
 Frequencies --  1111.3321              1181.1505              1203.2474
 Red. masses --     1.4599                 1.1120                 1.1372
 Frc consts  --     1.0623                 0.9141                 0.9700
 IR Inten    --     5.6033                 0.0698                 0.3811

                    22                     23                     24
                    A'                     A"                     A"
 Frequencies --  1229.0627              1327.9709              1356.1568
 Red. masses --     3.0065                 5.0295                 1.3919
 Frc consts  --     2.6759                 5.2258                 1.5083
 IR Inten    --     0.9049                 0.0629                 0.0106

                    25                     26                     27
                    A'                     A"                     A'
 Frequencies --  1414.9087              1470.4937              1491.2445
 Red. masses --     1.2487                 1.5804                 1.0494
 Frc consts  --     1.4729                 2.0135                 1.3749
 IR Inten    --     1.0067                 0.0162                 6.7839

                    28                     29                     30
                    A"                     A'                     A"
 Frequencies --  1504.3132              1530.0119              1626.9342
 Red. masses --     1.3005                 2.2712                 5.3136
 Frc consts  --     1.7340                 3.1325                 8.2866
 IR Inten    --    14.2008                15.5003                 0.3977

                    31                     32                     33
                    A'                     A'                     A'
 Frequencies --  1648.9136              3020.7627              3075.0953
 Red. masses --     5.6539                 1.0407                 1.0943
 Frc consts  --     9.0572                 5.5953                 6.0971
 IR Inten    --     7.5261                29.0603                22.5962

                    34                     35                     36
                    A"                     A'                     A"
 Frequencies --  3101.3453              3152.0818              3153.6911
 Red. masses --     1.1023                 1.0858                 1.0876
 Frc consts  --     6.2467                 6.3560                 6.3731
 IR Inten    --    17.8865                 9.5550                 6.3420

                    37                     38                     39
                    A'                     A"                     A'
 Frequencies --  3166.2991              3174.7135              3187.4638
 Red. masses --     1.0899                 1.0939                 1.0980
 Frc consts  --     6.4377                 6.4957                 6.5730
 IR Inten    --     8.4032                41.9202                16.8120

 - Thermochemistry -
 -------------------
 Temperature   298.150 Kelvin.  Pressure   1.00000 Atm.
 Atom  1 has atomic number  6 and mass  12.00000

 Molecular mass:    92.06260 amu.
 Principal axes and moments of inertia in atomic units:
                           1         2         3
     EIGENVALUES --   324.89671 717.151771030.83419
           X           -0.00734   0.00000   0.99997
           Y            0.99997   0.00000   0.00734
           Z            0.00000   1.00000   0.00000
 This molecule is an asymmetric top.
 Rotational symmetry number  1.
 Rotational temperatures (Kelvin)      0.26659     0.12077     0.08402
 Rotational constants (GHZ):           5.55482     2.51654     1.75076
 Zero-point vibrational energy     334334.5 (Joules/Mol)
                                   79.90787 (Kcal/Mol)
 Warning -- explicit consideration of   6 degrees of freedom as
           vibrations may cause significant error
 Vibrational temperatures:     41.75   300.68   494.10   596.82   685.66
          (Kelvin)            761.62   917.55  1026.57  1071.19  1149.70
                             1228.81  1310.35  1403.16  1437.74  1439.10
                             1464.66  1513.21  1529.29  1598.96  1699.41
                             1731.20  1768.34  1910.65  1951.20  2035.74
                             2115.71  2145.57  2164.37  2201.34  2340.79
                             2372.42  4346.20  4424.37  4462.14  4535.14
                             4537.45  4555.59  4567.70  4586.04

 Zero-point correction=                           0.127341 (Hartree/Particle)
 Thermal correction to Energy=                    0.133580
 Thermal correction to Enthalpy=                  0.134524
 Thermal correction to Gibbs Free Energy=         0.096472
 Sum of electronic and zero-point Energies=           -271.508711
 Sum of electronic and thermal Energies=              -271.502473
 Sum of electronic and thermal Enthalpies=            -271.501529
 Sum of electronic and thermal Free Energies=         -271.539581

                     E (Thermal)             CV                S
                      KCal/Mol        Cal/Mol-Kelvin    Cal/Mol-Kelvin
 Total                   83.823             23.278             80.088
 Electronic               0.000              0.000              0.000
 Translational            0.889              2.981             39.472
 Rotational               0.889              2.981             26.976
 Vibrational             82.045             17.316             13.640
 Vibration  1             0.593              1.984              5.895
 Vibration  2             0.642              1.827              2.053
 Vibration  3             0.722              1.589              1.196
 Vibration  4             0.778              1.438              0.910
 Vibration  5             0.833              1.302              0.719
 Vibration  6             0.884              1.185              0.589

 Optimization completed.
    -- Stationary point found.
 Normal termination of Gaussian 03 at Tue Mar  7 14:14:59 2017.
