 Q-Chem 4.2, Q-Chem, Inc., Pleasanton, CA (2014).
 Q-Chem 4.2.0 for Intel X86 Linux

User input:
--------------------------------------------------------------
$rem
XC_GRID 000075000434
JOBTYPE opt
EXCHANGE M08SO
SCF_ALGORITHM DIIS_GDM
BASIS gen
GUI=2
UNRESTRICTED TRUE
CORRELATION NONE
$end

$comment
c5h11o-2
$end

$molecule
0 1
H          8.44463        1.63442        1.00769
H          6.37079        0.83821        1.55314
H          6.37079        1.72344        0.04668
C          6.72745        0.84595        0.54437
O          8.12130        0.84595        0.54437
H          6.37079       -0.02381        0.03328
$end

$basis
H  0
S  3 1.00
3.386500000000E+01 2.549380000000E-02
5.094790000000E+00 1.903730000000E-01
1.158790000000E+00 8.521610000000E-01
S  1 1.00
3.258400000000E-01 1.000000000000E+00
S  1 1.00
1.027410000000E-01 1.000000000000E+00
S  1 1.00
3.600000000000E-02 1.000000000000E+00
P  1 1.00
1.500000000000E+00 1.000000000000E+00
P  1 1.00
3.750000000000E-01 1.000000000000E+00
****
C 0
S  6 1.00
4.563240000000E+03 1.966650000000E-03
6.820240000000E+02 1.523060000000E-02
1.549730000000E+02 7.612690000000E-02
4.445530000000E+01 2.608010000000E-01
1.302900000000E+01 6.164620000000E-01
1.827730000000E+00 2.210060000000E-01
S  3 1.00
2.096420000000E+01 1.146600000000E-01
4.803310000000E+00 9.199990000000E-01
1.459330000000E+00 -3.030680000000E-03
S  1 1.00
4.834560000000E-01 1.000000000000E+00
S  1 1.00
1.455850000000E-01 1.000000000000E+00
S  1 1.00
4.380000000000E-02 1.000000000000E+00
P  3 1.00
2.096420000000E+01 4.024870000000E-02
4.803310000000E+00 2.375940000000E-01
1.459330000000E+00 8.158540000000E-01
P  1 1.00
4.834560000000E-01 1.000000000000E+00
P  1 1.00
1.455850000000E-01 1.000000000000E+00
P  1 1.00
4.380000000000E-02 1.000000000000E+00
D  1 1.00
1.252000000000E+00 1.000000000000E+00
D  1 1.00
3.130000000000E-01 1.000000000000E+00
F  1 1.00
8.000000000000E-01 1.000000000000E+00
****
O  0
S  6 1.00
8.588500000000E+03 1.895150000000E-03
1.297230000000E+03 1.438590000000E-02
2.992960000000E+02 7.073200000000E-02
8.737710000000E+01 2.400010000000E-01
2.567890000000E+01 5.947970000000E-01
3.740040000000E+00 2.808020000000E-01
S  3 1.00
4.211750000000E+01 1.138890000000E-01
9.628370000000E+00 9.208110000000E-01
2.853320000000E+00 -3.274470000000E-03
S  1 1.00
9.056610000000E-01 1.000000000000E+00
S  1 1.00
2.556110000000E-01 1.000000000000E+00
S  1 1.00
8.450000000000E-02 1.000000000000E+00
P  3 1.00
4.211750000000E+01 3.651140000000E-02
9.628370000000E+00 2.371530000000E-01
2.853320000000E+00 8.197020000000E-01
P  1 1.00
9.056610000000E-01 1.000000000000E+00
P  1 1.00
2.556110000000E-01 1.000000000000E+00
P  1 1.00
8.450000000000E-02 1.000000000000E+00
D  1 1.00
2.584000000000E+00 1.000000000000E+00
D  1 1.00
6.460000000000E-01 1.000000000000E+00
F  1 1.00
1.400000000000E+00 1.000000000000E+00
****
$end

--------------------------------------------------------------

   20    -115.6828398168      2.26E-09 Convergence criterion met
 Total energy in the final basis set = -115.6828398168
   12    -115.6855177025      3.87E-09 Convergence criterion met
 Total energy in the final basis set = -115.6855177025
   10    -115.6855690191      6.59E-09 Convergence criterion met
 Total energy in the final basis set = -115.6855690191
 Final energy is   -115.685569019061
 **  OPTIMIZATION CONVERGED  **
 Total job time:  227.55s(wall), 221.28s(cpu)
        *  Thank you very much for using Q-Chem.  Have a nice day.  *
 Q-Chem 4.2, Q-Chem, Inc., Pleasanton, CA (2014).
 Q-Chem 4.2.0 for Intel X86 Linux

User input:
--------------------------------------------------------------

$molecule
READ
$end

$rem
JOBTYPE Freq
iprint 10000000
XC_GRID 000075000434
EXCHANGE M08SO
BASIS gen
GUI=2
SCF_GUESS READ
$end

$basis
H  0
S  3 1.00
3.386500000000E+01 2.549380000000E-02
5.094790000000E+00 1.903730000000E-01
1.158790000000E+00 8.521610000000E-01
S  1 1.00
3.258400000000E-01 1.000000000000E+00
S  1 1.00
1.027410000000E-01 1.000000000000E+00
S  1 1.00
3.600000000000E-02 1.000000000000E+00
P  1 1.00
1.500000000000E+00 1.000000000000E+00
P  1 1.00
3.750000000000E-01 1.000000000000E+00
****
C 0
S  6 1.00
4.563240000000E+03 1.966650000000E-03
6.820240000000E+02 1.523060000000E-02
1.549730000000E+02 7.612690000000E-02
4.445530000000E+01 2.608010000000E-01
1.302900000000E+01 6.164620000000E-01
1.827730000000E+00 2.210060000000E-01
S  3 1.00
2.096420000000E+01 1.146600000000E-01
4.803310000000E+00 9.199990000000E-01
1.459330000000E+00 -3.030680000000E-03
S  1 1.00
4.834560000000E-01 1.000000000000E+00
S  1 1.00
1.455850000000E-01 1.000000000000E+00
S  1 1.00
4.380000000000E-02 1.000000000000E+00
P  3 1.00
2.096420000000E+01 4.024870000000E-02
4.803310000000E+00 2.375940000000E-01
1.459330000000E+00 8.158540000000E-01
P  1 1.00
4.834560000000E-01 1.000000000000E+00
P  1 1.00
1.455850000000E-01 1.000000000000E+00
P  1 1.00
4.380000000000E-02 1.000000000000E+00
D  1 1.00
1.252000000000E+00 1.000000000000E+00
D  1 1.00
3.130000000000E-01 1.000000000000E+00
F  1 1.00
8.000000000000E-01 1.000000000000E+00
****
O  0
S  6 1.00
8.588500000000E+03 1.895150000000E-03
1.297230000000E+03 1.438590000000E-02
2.992960000000E+02 7.073200000000E-02
8.737710000000E+01 2.400010000000E-01
2.567890000000E+01 5.947970000000E-01
3.740040000000E+00 2.808020000000E-01
S  3 1.00
4.211750000000E+01 1.138890000000E-01
9.628370000000E+00 9.208110000000E-01
2.853320000000E+00 -3.274470000000E-03
S  1 1.00
9.056610000000E-01 1.000000000000E+00
S  1 1.00
2.556110000000E-01 1.000000000000E+00
S  1 1.00
8.450000000000E-02 1.000000000000E+00
P  3 1.00
4.211750000000E+01 3.651140000000E-02
9.628370000000E+00 2.371530000000E-01
2.853320000000E+00 8.197020000000E-01
P  1 1.00
9.056610000000E-01 1.000000000000E+00
P  1 1.00
2.556110000000E-01 1.000000000000E+00
P  1 1.00
8.450000000000E-02 1.000000000000E+00
D  1 1.00
2.584000000000E+00 1.000000000000E+00
D  1 1.00
6.460000000000E-01 1.000000000000E+00
F  1 1.00
1.400000000000E+00 1.000000000000E+00
****
--------------------------------------------------------------

    9    -115.6855679488      4.32E-09 Convergence criterion met
 Total energy in the final basis set = -115.6855679488
    7    -115.6855677341      9.79E-09 Convergence criterion met
 Total energy in the final basis set = -115.6855677341
    8    -115.6855675559      2.44E-09 Convergence criterion met
 Total energy in the final basis set = -115.6855675559
    8    -115.6855673962      4.76E-09 Convergence criterion met
 Total energy in the final basis set = -115.6855673962
 Total energy in the final basis set = -115.6855666179
    8    -115.6855673096      4.36E-09 Convergence criterion met
 Total energy in the final basis set = -115.6855673096
    8    -115.6855678380      2.77E-09 Convergence criterion met
 Total energy in the final basis set = -115.6855678380
    8    -115.6855678919      3.43E-09 Convergence criterion met
 Total energy in the final basis set = -115.6855678919
    8    -115.6855675879      1.53E-09 Convergence criterion met
 Total energy in the final basis set = -115.6855675879
    8    -115.6855677881      1.41E-09 Convergence criterion met
 Total energy in the final basis set = -115.6855677881
    8    -115.6855670051      2.67E-09 Convergence criterion met
 Total energy in the final basis set = -115.6855670051
    8    -115.6855678350      1.47E-09 Convergence criterion met
 Total energy in the final basis set = -115.6855678350

                    Orbital Energies (a.u.)
 --------------------------------------------------------------

 Alpha MOs
 -- Occupied --
-19.565 -10.538  -1.135  -0.778  -0.593  -0.525  -0.508  -0.416
 -0.365

          Ground-State Mulliken Net Atomic Charges

     Atom                 Charge (a.u.)
  ----------------------------------------
      1 H                     0.277805
      2 H                     0.137359
      3 H                     0.137304
      4 C                    -0.346947
      5 O                    -0.360305
      6 H                     0.154784
  ----------------------------------------
  Sum of atomic charges =     0.000000

                    Cartesian Multipole Moments
 -----------------------------------------------------------------
    Charge (ESU x 10^10)
                 0.0000
    Dipole Moment (Debye)
         X      -0.8733      Y       1.5443      Z       0.0004
       Tot       1.7741
    Quadrupole Moments (Debye-Ang)
        XX     -13.1203     XY       2.3517     YY     -12.4383
        XZ      -0.0007     YZ      -0.0017     ZZ     -13.9958

             Standard Nuclear Orientation (Angstroms)
    I     Atom           X                Y                Z
 ----------------------------------------------------------------
    1      H       1.1602766251     0.7440041668     0.0000000000
    2      H      -1.0238199135     0.5491611044     0.8955435483
    3      H      -1.0238199135     0.5491611044    -0.8955435483
    4      C      -0.6635654941     0.0210421157     0.0000000000
    5      O       0.7448617589    -0.1226848151     0.0000000000
    6      H      -1.0901381210    -0.9871035237     0.0000000000
 ----------------------------------------------------------------

 Frequency:       287.21                1052.83                1107.93
 Force Cnst:      0.0521                 0.7500                 3.6963
 Red. Mass:       1.0719                 1.1485                 5.1109
 IR Intens:      121.250                 71.872                 61.380
 Frequency:      1165.52                1342.58                1463.89
 Force Cnst:      1.0201                 1.3783                 1.4451
 Red. Mass:       1.2745                 1.2978                 1.1445
 IR Intens:        0.797                 27.645                  2.851
 Frequency:      1482.70                1492.77                2958.04
 Force Cnst:      1.3537                 1.3741                 5.3357
 Red. Mass:       1.0451                 1.0466                 1.0350
 IR Intens:        4.003                  5.622                 55.477
 Frequency:      3011.84                3068.95                3906.36
 Force Cnst:      5.9072                 6.0987                 9.5900
 Red. Mass:       1.1053                 1.0990                 1.0667
 IR Intens:       46.358                 21.860                 53.009

 STANDARD THERMODYNAMIC QUANTITIES AT   298.15 K  AND     1.00 ATM

   This Molecule has  0 Imaginary Frequencies
   Zero point vibrational energy:       31.938 kcal/mol

   Atom    1 Element H  Has Mass    1.00783
   Atom    2 Element H  Has Mass    1.00783
   Atom    3 Element H  Has Mass    1.00783
   Atom    4 Element C  Has Mass   12.00000
   Atom    5 Element O  Has Mass   15.99491
   Atom    6 Element H  Has Mass    1.00783
   Molecular Mass:    32.026230 amu
   Principal axes and moments of inertia in amu*Bohr^2:
                             1           2           3
    Eigenvalues --       14.11641    72.69681    75.26757
          X               0.99893     0.04614     0.00000
          Y              -0.04614     0.99893     0.00000
          Z               0.00000     0.00000     1.00000
   Rotational Symmetry Number is   1
   The Molecule is an Asymmetric Top
   Translational Enthalpy:        0.889 kcal/mol
   Rotational Enthalpy:           0.889 kcal/mol
   Vibrational Enthalpy:         32.273 kcal/mol
   gas constant (RT):             0.592 kcal/mol
   Translational Entropy:        36.324  cal/mol.K
   Rotational Entropy:           18.985  cal/mol.K
   Vibrational Entropy:           1.735  cal/mol.K

   Total Enthalpy:               34.643 kcal/mol
   Total Entropy:                57.045  cal/mol.K

 Total job time:  773.31s(wall), 735.08s(cpu)
        *  Thank you very much for using Q-Chem.  Have a nice day.  *
