 Q-Chem 4.2, Q-Chem, Inc., Pleasanton, CA (2014).
 Q-Chem 4.2.0 for Intel X86 Linux

User input:
--------------------------------------------------------------
$rem
XC_GRID 000075000434
JOBTYPE ts
EXCHANGE M08SO
SCF_ALGORITHM DIIS_GDM
BASIS gen
GUI=2
UNRESTRICTED TRUE
CORRELATION NONE
$end

$comment
c5h11o-2
$end

$molecule
0 2
O       1.5394312769    -0.5654889660     0.2461402615
H       2.1412272091     1.1788839371    -0.5890707529
C       1.3515877891     0.5613445824    -0.0904938679
H       0.0752531934     0.9777666245     0.0443765132
C      -1.2813441220     0.6457190754     0.1614546239
O      -1.3341097173    -0.6651641219    -0.2591575297
H      -1.4931005369     0.8088069726     1.2263243616
H      -1.8396522504     1.2985769022    -0.5121286906
H      -0.6862682231    -1.1932241008     0.2288707777
$end

$basis
H  0
S  3 1.00
3.386500000000E+01 2.549380000000E-02
5.094790000000E+00 1.903730000000E-01
1.158790000000E+00 8.521610000000E-01
S  1 1.00
3.258400000000E-01 1.000000000000E+00
S  1 1.00
1.027410000000E-01 1.000000000000E+00
S  1 1.00
3.600000000000E-02 1.000000000000E+00
P  1 1.00
1.500000000000E+00 1.000000000000E+00
P  1 1.00
3.750000000000E-01 1.000000000000E+00
****
C 0
S  6 1.00
4.563240000000E+03 1.966650000000E-03
6.820240000000E+02 1.523060000000E-02
1.549730000000E+02 7.612690000000E-02
4.445530000000E+01 2.608010000000E-01
1.302900000000E+01 6.164620000000E-01
1.827730000000E+00 2.210060000000E-01
S  3 1.00
2.096420000000E+01 1.146600000000E-01
4.803310000000E+00 9.199990000000E-01
1.459330000000E+00 -3.030680000000E-03
S  1 1.00
4.834560000000E-01 1.000000000000E+00
S  1 1.00
1.455850000000E-01 1.000000000000E+00
S  1 1.00
4.380000000000E-02 1.000000000000E+00
P  3 1.00
2.096420000000E+01 4.024870000000E-02
4.803310000000E+00 2.375940000000E-01
1.459330000000E+00 8.158540000000E-01
P  1 1.00
4.834560000000E-01 1.000000000000E+00
P  1 1.00
1.455850000000E-01 1.000000000000E+00
P  1 1.00
4.380000000000E-02 1.000000000000E+00
D  1 1.00
1.252000000000E+00 1.000000000000E+00
D  1 1.00
3.130000000000E-01 1.000000000000E+00
F  1 1.00
8.000000000000E-01 1.000000000000E+00
****
O  0
S  6 1.00
8.588500000000E+03 1.895150000000E-03
1.297230000000E+03 1.438590000000E-02
2.992960000000E+02 7.073200000000E-02
8.737710000000E+01 2.400010000000E-01
2.567890000000E+01 5.947970000000E-01
3.740040000000E+00 2.808020000000E-01
S  3 1.00
4.211750000000E+01 1.138890000000E-01
9.628370000000E+00 9.208110000000E-01
2.853320000000E+00 -3.274470000000E-03
S  1 1.00
9.056610000000E-01 1.000000000000E+00
S  1 1.00
2.556110000000E-01 1.000000000000E+00
S  1 1.00
8.450000000000E-02 1.000000000000E+00
P  3 1.00
4.211750000000E+01 3.651140000000E-02
9.628370000000E+00 2.371530000000E-01
2.853320000000E+00 8.197020000000E-01
P  1 1.00
9.056610000000E-01 1.000000000000E+00
P  1 1.00
2.556110000000E-01 1.000000000000E+00
P  1 1.00
8.450000000000E-02 1.000000000000E+00
D  1 1.00
2.584000000000E+00 1.000000000000E+00
D  1 1.00
6.460000000000E-01 1.000000000000E+00
F  1 1.00
1.400000000000E+00 1.000000000000E+00
****
$end

--------------------------------------------------------------

   27    -229.4629088983      6.95E-09 Convergence criterion met
 Total energy in the final basis set = -229.4629088983
   20    -229.4621629666      9.65E-09 Convergence criterion met
 Total energy in the final basis set = -229.4621629666
   19    -229.4606068898      7.22E-09 Convergence criterion met
 Total energy in the final basis set = -229.4606068898
   19    -229.4623618641      8.96E-09 Convergence criterion met
 Total energy in the final basis set = -229.4623618641
   19    -229.4625951081      7.89E-09 Convergence criterion met
 Total energy in the final basis set = -229.4625951081
   19    -229.4627235919      6.53E-09 Convergence criterion met
 Total energy in the final basis set = -229.4627235919
   18    -229.4626624434      9.65E-09 Convergence criterion met
 Total energy in the final basis set = -229.4626624434
   19    -229.4626778363      3.33E-09 Convergence criterion met
 **  OPTIMIZATION CONVERGED  **
 Total job time:  6195.01s(wall), 6064.63s(cpu)
        *  Thank you very much for using Q-Chem.  Have a nice day.  *
 Q-Chem 4.2, Q-Chem, Inc., Pleasanton, CA (2014).
 Q-Chem 4.2.0 for Intel X86 Linux

User input:
--------------------------------------------------------------

$molecule
READ
$end

$rem
JOBTYPE Freq
iprint 10000000
XC_GRID 000075000434
EXCHANGE M08SO
BASIS gen
GUI=2
SCF_GUESS READ
$end

$basis
H  0
S  3 1.00
3.386500000000E+01 2.549380000000E-02
5.094790000000E+00 1.903730000000E-01
1.158790000000E+00 8.521610000000E-01
S  1 1.00
3.258400000000E-01 1.000000000000E+00
S  1 1.00
1.027410000000E-01 1.000000000000E+00
S  1 1.00
3.600000000000E-02 1.000000000000E+00
P  1 1.00
1.500000000000E+00 1.000000000000E+00
P  1 1.00
3.750000000000E-01 1.000000000000E+00
****
C 0
S  6 1.00
4.563240000000E+03 1.966650000000E-03
6.820240000000E+02 1.523060000000E-02
1.549730000000E+02 7.612690000000E-02
4.445530000000E+01 2.608010000000E-01
1.302900000000E+01 6.164620000000E-01
1.827730000000E+00 2.210060000000E-01
S  3 1.00
2.096420000000E+01 1.146600000000E-01
4.803310000000E+00 9.199990000000E-01
1.459330000000E+00 -3.030680000000E-03
S  1 1.00
4.834560000000E-01 1.000000000000E+00
S  1 1.00
1.455850000000E-01 1.000000000000E+00
S  1 1.00
4.380000000000E-02 1.000000000000E+00
P  3 1.00
2.096420000000E+01 4.024870000000E-02
4.803310000000E+00 2.375940000000E-01
1.459330000000E+00 8.158540000000E-01
P  1 1.00
4.834560000000E-01 1.000000000000E+00
P  1 1.00
1.455850000000E-01 1.000000000000E+00
P  1 1.00
4.380000000000E-02 1.000000000000E+00
D  1 1.00
1.252000000000E+00 1.000000000000E+00
D  1 1.00
3.130000000000E-01 1.000000000000E+00
F  1 1.00
8.000000000000E-01 1.000000000000E+00
****
O  0
S  6 1.00
8.588500000000E+03 1.895150000000E-03
1.297230000000E+03 1.438590000000E-02
2.992960000000E+02 7.073200000000E-02
8.737710000000E+01 2.400010000000E-01
2.567890000000E+01 5.947970000000E-01
3.740040000000E+00 2.808020000000E-01
S  3 1.00
4.211750000000E+01 1.138890000000E-01
9.628370000000E+00 9.208110000000E-01
2.853320000000E+00 -3.274470000000E-03
S  1 1.00
9.056610000000E-01 1.000000000000E+00
S  1 1.00
2.556110000000E-01 1.000000000000E+00
S  1 1.00
8.450000000000E-02 1.000000000000E+00
P  3 1.00
4.211750000000E+01 3.651140000000E-02
9.628370000000E+00 2.371530000000E-01
2.853320000000E+00 8.197020000000E-01
P  1 1.00
9.056610000000E-01 1.000000000000E+00
P  1 1.00
2.556110000000E-01 1.000000000000E+00
P  1 1.00
8.450000000000E-02 1.000000000000E+00
D  1 1.00
2.584000000000E+00 1.000000000000E+00
D  1 1.00
6.460000000000E-01 1.000000000000E+00
F  1 1.00
1.400000000000E+00 1.000000000000E+00
****
--------------------------------------------------------------

 Total energy in the final basis set = -229.4630879470
    9    -229.4630878602      9.15E-09 Convergence criterion met
 Total energy in the final basis set = -229.4630878602
    8    -229.4630876757      9.26E-09 Convergence criterion met
 Total energy in the final basis set = -229.4630876757
    9    -229.4630876615      9.48E-09 Convergence criterion met
 Total energy in the final basis set = -229.4630876615
    8    -229.4630878199      6.86E-09 Convergence criterion met
 Total energy in the final basis set = -229.4630878199
    9    -229.4630878551      4.98E-09 Convergence criterion met
 Total energy in the final basis set = -229.4630878551
    8    -229.4630879708      4.76E-09 Convergence criterion met
 Total energy in the final basis set = -229.4630879708
    8    -229.4630879767      9.27E-09 Convergence criterion met
 Total energy in the final basis set = -229.4630879767

                    Orbital Energies (a.u.)
 --------------------------------------------------------------

 Alpha MOs
 -- Occupied --
-19.612 -19.582 -10.611 -10.555  -1.209  -1.159  -0.781  -0.713
 -0.631  -0.585  -0.561  -0.532  -0.507  -0.487  -0.422  -0.382
 -0.243

 Beta MOs
 -- Occupied --
-19.608 -19.580 -10.601 -10.543  -1.201  -1.152  -0.767  -0.695
 -0.616  -0.572  -0.549  -0.526  -0.503  -0.460  -0.408  -0.352

          Ground-State Mulliken Net Atomic Charges

     Atom                 Charge (a.u.)    Spin (a.u.)
  --------------------------------------------------------
      1 O                    -0.223857       0.070324
      2 H                     0.167033       0.099234
      3 C                    -0.047906       0.329971
      4 H                     0.147835      -0.059513
      5 C                    -0.416891       0.522039
      6 O                    -0.283054       0.048193
      7 H                     0.184269       0.001536
      8 H                     0.182232      -0.010686
      9 H                     0.290337      -0.001098
  --------------------------------------------------------
  Sum of atomic charges =     0.000000

                    Cartesian Multipole Moments
 -----------------------------------------------------------------
    Charge (ESU x 10^10)
                 0.0000
    Dipole Moment (Debye)
         X       0.7595      Y       2.3051      Z       0.4071
       Tot       2.4609
    Quadrupole Moments (Debye-Ang)
        XX     -27.3911     XY       0.9722     YY     -24.1185
        XZ      -1.9322     YZ      -1.0541     ZZ     -24.8741

             Standard Nuclear Orientation (Angstroms)
    I     Atom           X                Y                Z
 ----------------------------------------------------------------
    1      O       1.5146019911    -0.5794846214     0.1685737048
    2      H       2.1877886305     1.2203530356    -0.4743490330
    3      C       1.3466303861     0.5543841435    -0.1533260089
    4      H       0.0412548351     0.9702349757    -0.0872250439
    5      C      -1.2817988101     0.6310872786     0.1538596536
    6      O      -1.3484783275    -0.6944432691    -0.2170178286
    7      H      -1.4026962077     0.8265857918     1.2277876345
    8      H      -1.9157098735     1.2490227027    -0.4854501927
    9      H      -0.6286161487    -1.1876019152     0.2035877571
 ----------------------------------------------------------------

 Frequency:     -2005.48                 116.25                 160.58
 Force Cnst:      2.5988                 0.0219                 0.0879
 Red. Mass:       1.0967                 2.7537                 5.7884
 IR Intens:      815.906                  9.578                  6.597
 Frequency:       205.11                 320.50                 430.31
 Force Cnst:      0.0308                 0.1900                 0.1239
 Red. Mass:       1.2441                 3.1399                 1.1360
 IR Intens:        7.991                  3.556                163.222
 Frequency:       553.54                 561.38                1083.19
 Force Cnst:      0.2335                 0.5431                 0.7760
 Red. Mass:       1.2933                 2.9252                 1.1225
 IR Intens:       20.534                  6.300                 69.831
 Frequency:      1143.92                1170.92                1232.80
 Force Cnst:      0.9976                 3.1362                 1.1750
 Red. Mass:       1.2940                 3.8824                 1.3122
 IR Intens:       34.312                102.867                 34.158
 Frequency:      1313.93                1354.15                1464.47
 Force Cnst:      1.1249                 1.3086                 1.3898
 Red. Mass:       1.1059                 1.2112                 1.0999
 IR Intens:        6.353                 36.778                  8.368
 Frequency:      1539.85                1861.38                2825.06
 Force Cnst:      1.4798                20.0280                 5.1066
 Red. Mass:       1.0592                 9.8111                 1.0860
 IR Intens:        0.628                210.940                150.317
 Frequency:      3000.27                3121.43                3798.41
 Force Cnst:      5.5933                 6.3705                 9.0604
 Red. Mass:       1.0546                 1.1097                 1.0658
 IR Intens:       38.093                 16.027                 64.478

 STANDARD THERMODYNAMIC QUANTITIES AT   298.15 K  AND     1.00 ATM

   This Molecule has  1 Imaginary Frequencies
   Zero point vibrational energy:       38.966 kcal/mol

   Atom    1 Element O  Has Mass   15.99491
   Atom    2 Element H  Has Mass    1.00783
   Atom    3 Element C  Has Mass   12.00000
   Atom    4 Element H  Has Mass    1.00783
   Atom    5 Element C  Has Mass   12.00000
   Atom    6 Element O  Has Mass   15.99491
   Atom    7 Element H  Has Mass    1.00783
   Atom    8 Element H  Has Mass    1.00783
   Atom    9 Element H  Has Mass    1.00783
   Molecular Mass:    61.028970 amu
   Principal axes and moments of inertia in amu*Bohr^2:
                             1           2           3
    Eigenvalues --      111.78368   435.34273   520.25833
          X               0.99985    -0.00241    -0.01705
          Y               0.00207     0.99980    -0.01979
          Z               0.01710     0.01975     0.99966
   Rotational Symmetry Number is   1
   The Molecule is an Asymmetric Top
   Translational Enthalpy:        0.889 kcal/mol
   Rotational Enthalpy:           0.889 kcal/mol
   Vibrational Enthalpy:         40.874 kcal/mol
   gas constant (RT):             0.592 kcal/mol
   Translational Entropy:        38.246  cal/mol.K
   Rotational Entropy:           24.741  cal/mol.K
   Vibrational Entropy:          11.290  cal/mol.K

   Total Enthalpy:               43.244 kcal/mol
   Total Entropy:                74.276  cal/mol.K

 Total job time:  4250.92s(wall), 4124.81s(cpu)
        *  Thank you very much for using Q-Chem.  Have a nice day.  *
