 Gaussian 09, Revision D.01,
 Gaussian 09:  ES64L-G09RevD.01 24-Apr-2013

 ----------------------------------------------------------------------
 #P guess=read ub2plypd3/def2tzvp freq IOp(7/33=1) scf=(tight, direct)
 integral=(grid=ultrafine, Acc2E=12) IOp(2/9=2000) scf=xqc
 ----------------------------------------------------------------------

 ---------
 Hydrazino
 ---------
 Symbolic Z-matrix:
 Charge =  0 Multiplicity = 2

                         Standard orientation:
 ---------------------------------------------------------------------
 Center     Atomic      Atomic             Coordinates (Angstroms)
 Number     Number       Type             X           Y           Z
 ---------------------------------------------------------------------
      1          7           0        0.594914    0.024548   -0.072558
      2          7           0       -0.737934   -0.150898    0.023768
      3          1           0        1.127799   -0.797550    0.160621
      4          1           0        1.019315    0.898406    0.208332
      5          1           0       -1.145975    0.783596   -0.027425
 ---------------------------------------------------------------------

 SCF Done:  E(UB2PLYPD3) =  -111.057339465     A.U. after    1 cycles
 E2(B2PLYPD3) =    -0.1284779562D+00 E(B2PLYPD3) =    -0.11118581742131D+03
 E2(B2PLYPD3) =    -0.1284779562D+00 E(B2PLYPD3) =    -0.11118581742131D+03

 The electronic state is 2-A.
 Alpha  occ. eigenvalues --  -14.87986 -14.85320  -1.11937  -0.85170  -0.62987
 Alpha  occ. eigenvalues --   -0.54588  -0.47680  -0.37118  -0.26172
 Alpha virt. eigenvalues --    0.06359   0.10235   0.13877   0.29479   0.35117
 Alpha virt. eigenvalues --    0.37935   0.42262   0.42895   0.45703   0.47432
 Alpha virt. eigenvalues --    0.49314   0.53420   0.57729   0.59230   0.64188

  Beta  occ. eigenvalues --  -14.87217 -14.83239  -1.08883  -0.80770  -0.62217
  Beta  occ. eigenvalues --   -0.53283  -0.37979  -0.34380
  Beta virt. eigenvalues --    0.04228   0.06727   0.10611   0.14169   0.30517
  Beta virt. eigenvalues --    0.35338   0.40105   0.42752   0.43560   0.47953
  Beta virt. eigenvalues --    0.50297   0.51108   0.54420   0.58356   0.60421

 Mulliken charges and spin densities:
               1          2
     1  N   -0.343046   0.218732
     2  N   -0.318977   0.823493
     3  H    0.242969  -0.007431
     4  H    0.226757  -0.002140
     5  H    0.192297  -0.032654
 Sum of Mulliken charges =  -0.00000   1.00000

 Dipole moment (field-independent basis, Debye):
    X=              1.8450    Y=              1.6539    Z=              0.7074  Tot=              2.5768
 Quadrupole moment (field-independent basis, Debye-Ang):
   XX=            -11.7247   YY=            -10.8529   ZZ=            -14.3279
   XY=             -2.2502   XZ=              1.0305   YZ=              0.1197

  Exact polarizability:  24.811  -0.105  16.950  -0.170  -0.075  12.435
 Approx polarizability:  23.805  -0.217  18.073  -0.213  -0.080  13.104

                      1                      2                      3
                      A                      A                      A
 Frequencies --    572.9358               716.2465              1146.4610
 Red. masses --      1.2930                 1.0712                 1.0807
 Frc consts  --      0.2501                 0.3238                 0.8369
 IR Inten    --    134.0081               132.5781                21.4188

                      4                      5                      6
                      A                      A                      A
 Frequencies --   1246.8652              1491.9347              1675.0172
 Red. masses --      6.3500                 1.2611                 1.0959
 Frc consts  --      5.8165                 1.6539                 1.8116
 IR Inten    --      4.0298                22.2389                17.4177

                      7                      8                      9
                      A                      A                      A
 Frequencies --   3433.3288              3501.8889              3647.8408
 Red. masses --      1.0746                 1.0464                 1.1001
 Frc consts  --      7.4635                 7.5602                 8.6253
 IR Inten    --      5.8188                 1.7443                22.1690

 - Thermochemistry -
 -------------------
 Temperature   298.150 Kelvin.  Pressure   1.00000 Atm.
 Atom     1 has atomic number  7 and mass  14.00307

 Molecular mass:    31.02962 amu.
 Principal axes and moments of inertia in atomic units:
                           1         2         3
     Eigenvalues --     8.78765  58.57258  66.38524
           X            0.99778  -0.06121   0.02634
           Y            0.06094   0.99808   0.01097
           Z           -0.02696  -0.00934   0.99959
 This molecule is an asymmetric top.
 Rotational symmetry number  1.
 Rotational temperatures (Kelvin)      9.85631     1.47874     1.30471
 Rotational constants (GHZ):         205.37243    30.81205    27.18588
 Zero-point vibrational energy     104269.6 (Joules/Mol)
                                   24.92104 (Kcal/Mol)
 Warning -- explicit consideration of   1 degrees of freedom as
           vibrations may cause significant error
 Vibrational temperatures:    824.33  1030.52  1649.50  1793.96  2146.56
          (Kelvin)           2409.97  4939.79  5038.43  5248.42

 Zero-point correction=                           0.039714 (Hartree/Particle)
 Thermal correction to Energy=                    0.042871
 Thermal correction to Enthalpy=                  0.043815
 Thermal correction to Gibbs Free Energy=         0.016888
 Sum of electronic and zero-point Energies=           -111.146103
 Sum of electronic and thermal Energies=              -111.142947
 Sum of electronic and thermal Enthalpies=            -111.142003
 Sum of electronic and thermal Free Energies=         -111.168929

                     E (Thermal)             CV                S
                      KCal/Mol        Cal/Mol-Kelvin    Cal/Mol-Kelvin
 Total                   26.902              8.386             56.672
 Electronic               0.000              0.000              1.377
 Translational            0.889              2.981             36.230
 Rotational               0.889              2.981             18.175
 Vibrational             25.124              2.424              0.889
 Vibration     1          0.929              1.090              0.499

 Optimization completed.
    -- Stationary point found.
 Normal termination of Gaussian 09 at Sat Nov 12 21:51:35 2022.
