 Gaussian 09, Revision D.01,
 Gaussian 09:  ES64L-G09RevD.01 24-Apr-2013

 ----------------------------------------------------------------------
 #P opt=(modredundant, calcfc, noeigentest, maxStep=5) scf=(tight, dire
 ct) integral=(grid=ultrafine, Acc2E=12) guess=read ub2plypd3/def2tzvp
 IOp(2/9=2000) scf=xqc
 ----------------------------------------------------------------------

 ---------
 Hydrazino
 ---------
 Symbolic Z-matrix:
 Charge =  0 Multiplicity = 2

 SCF Done:  E(UB2PLYPD3) =  -111.057339465     A.U. after    1 cycles
 E2(B2PLYPD3) =    -0.1284779562D+00 E(B2PLYPD3) =    -0.11118581742131D+03
 E2(B2PLYPD3) =    -0.1284779562D+00 E(B2PLYPD3) =    -0.11118581742131D+03

  Exact polarizability:  24.811  -0.105  16.950  -0.170  -0.075  12.435
 Approx polarizability:  23.805  -0.217  18.073  -0.213  -0.080  13.104

 Optimization completed.
    -- Stationary point found.
 SCF Done:  E(UB2PLYPD3) =  -111.056953795     A.U. after   13 cycles
 E2(B2PLYPD3) =    -0.1284841313D+00 E(B2PLYPD3) =    -0.11118543792661D+03
 SCF Done:  E(UB2PLYPD3) =  -111.056953308     A.U. after    9 cycles
 E2(B2PLYPD3) =    -0.1284855795D+00 E(B2PLYPD3) =    -0.11118543888787D+03
 Optimization completed.
 SCF Done:  E(UB2PLYPD3) =  -111.055774342     A.U. after   14 cycles
 E2(B2PLYPD3) =    -0.1284874211D+00 E(B2PLYPD3) =    -0.11118426176315D+03
 SCF Done:  E(UB2PLYPD3) =  -111.053745588     A.U. after   14 cycles
 E2(B2PLYPD3) =    -0.1284784862D+00 E(B2PLYPD3) =    -0.11118222407419D+03
 SCF Done:  E(UB2PLYPD3) =  -111.053743873     A.U. after   10 cycles
 E2(B2PLYPD3) =    -0.1284814522D+00 E(B2PLYPD3) =    -0.11118222532496D+03
 SCF Done:  E(UB2PLYPD3) =  -111.050825449     A.U. after   14 cycles
 E2(B2PLYPD3) =    -0.1284433593D+00 E(B2PLYPD3) =    -0.11117926880791D+03
 SCF Done:  E(UB2PLYPD3) =  -111.050825541     A.U. after   11 cycles
 E2(B2PLYPD3) =    -0.1284469091D+00 E(B2PLYPD3) =    -0.11117927244976D+03
 SCF Done:  E(UB2PLYPD3) =  -111.046993122     A.U. after   16 cycles
 E2(B2PLYPD3) =    -0.1283600567D+00 E(B2PLYPD3) =    -0.11117535317919D+03
 SCF Done:  E(UB2PLYPD3) =  -111.046996947     A.U. after   11 cycles
 E2(B2PLYPD3) =    -0.1283639535D+00 E(B2PLYPD3) =    -0.11117536090029D+03
 E2(B2PLYPD3) =    -0.1281915091D+00 E(B2PLYPD3) =    -0.11117045191611D+03
 E2(B2PLYPD3) =    -0.1281948062D+00 E(B2PLYPD3) =    -0.11117046541062D+03
 E2(B2PLYPD3) =    -0.1278671251D+00 E(B2PLYPD3) =    -0.11116455885647D+03
 E2(B2PLYPD3) =    -0.1278667317D+00 E(B2PLYPD3) =    -0.11116457990227D+03
 E2(B2PLYPD3) =    -0.1272279635D+00 E(B2PLYPD3) =    -0.11115768894239D+03
 E2(B2PLYPD3) =    -0.1272075488D+00 E(B2PLYPD3) =    -0.11115772186544D+03
 E2(B2PLYPD3) =    -0.1258743934D+00 E(B2PLYPD3) =    -0.11114997410738D+03
 E2(B2PLYPD3) =    -0.1257298801D+00 E(B2PLYPD3) =    -0.11115010354418D+03
 E2(B2PLYPD3) =    -0.1256631106D+00 E(B2PLYPD3) =    -0.11115012056972D+03
 E2(B2PLYPD3) =    -0.1271563790D+00 E(B2PLYPD3) =    -0.11115707278508D+03
 E2(B2PLYPD3) =    -0.1271512858D+00 E(B2PLYPD3) =    -0.11115707399239D+03
 E2(B2PLYPD3) =    -0.1278158412D+00 E(B2PLYPD3) =    -0.11116330609751D+03
 E2(B2PLYPD3) =    -0.1277924549D+00 E(B2PLYPD3) =    -0.11116333877857D+03
 E2(B2PLYPD3) =    -0.1281594868D+00 E(B2PLYPD3) =    -0.11116876442087D+03
 E2(B2PLYPD3) =    -0.1281312149D+00 E(B2PLYPD3) =    -0.11116878419773D+03
 E2(B2PLYPD3) =    -0.1283347652D+00 E(B2PLYPD3) =    -0.11117338188023D+03
 E2(B2PLYPD3) =    -0.1283115310D+00 E(B2PLYPD3) =    -0.11117339732181D+03
 E2(B2PLYPD3) =    -0.1284189307D+00 E(B2PLYPD3) =    -0.11117720501590D+03
 E2(B2PLYPD3) =    -0.1284016102D+00 E(B2PLYPD3) =    -0.11117721792468D+03
 SCF Done:  E(UB2PLYPD3) =  -111.051833325     A.U. after   14 cycles
 E2(B2PLYPD3) =    -0.1284541797D+00 E(B2PLYPD3) =    -0.11118028750510D+03
 SCF Done:  E(UB2PLYPD3) =  -111.051855844     A.U. after   11 cycles
 E2(B2PLYPD3) =    -0.1284424842D+00 E(B2PLYPD3) =    -0.11118029832843D+03
 SCF Done:  E(UB2PLYPD3) =  -111.054210045     A.U. after   14 cycles
 E2(B2PLYPD3) =    -0.1284657830D+00 E(B2PLYPD3) =    -0.11118267582767D+03
 SCF Done:  E(UB2PLYPD3) =  -111.054225799     A.U. after   11 cycles
 E2(B2PLYPD3) =    -0.1284587633D+00 E(B2PLYPD3) =    -0.11118268456260D+03
 SCF Done:  E(UB2PLYPD3) =  -111.055928070     A.U. after   13 cycles
 E2(B2PLYPD3) =    -0.1284689593D+00 E(B2PLYPD3) =    -0.11118439702912D+03
 SCF Done:  E(UB2PLYPD3) =  -111.055938269     A.U. after   10 cycles
 E2(B2PLYPD3) =    -0.1284653069D+00 E(B2PLYPD3) =    -0.11118440357597D+03
 SCF Done:  E(UB2PLYPD3) =  -111.056980121     A.U. after   13 cycles
 E2(B2PLYPD3) =    -0.1284718361D+00 E(B2PLYPD3) =    -0.11118545195671D+03
 SCF Done:  E(UB2PLYPD3) =  -111.056985959     A.U. after    9 cycles
 E2(B2PLYPD3) =    -0.1284703519D+00 E(B2PLYPD3) =    -0.11118545631126D+03
    -- Stationary point found.
 SCF Done:  E(UB2PLYPD3) =  -111.057337666     A.U. after   12 cycles
 E2(B2PLYPD3) =    -0.1284773427D+00 E(B2PLYPD3) =    -0.11118581500891D+03
 SCF Done:  E(UB2PLYPD3) =  -111.057340283     A.U. after    9 cycles
 E2(B2PLYPD3) =    -0.1284771116D+00 E(B2PLYPD3) =    -0.11118581739460D+03
 Optimization completed.
    -- Stationary point found.

                         Standard orientation:
 ---------------------------------------------------------------------
 Center     Atomic      Atomic             Coordinates (Angstroms)
 Number     Number       Type             X           Y           Z
 ---------------------------------------------------------------------
      1          7           0        0.594927    0.024551   -0.072509
      2          7           0       -0.737894   -0.150909    0.023734
      3          1           0        1.127692   -0.797638    0.160596
      4          1           0        1.019066    0.898585    0.208158
      5          1           0       -1.145991    0.783560   -0.027334
 ---------------------------------------------------------------------

 The electronic state is 2-A.
 Alpha  occ. eigenvalues --  -14.87986 -14.85318  -1.11938  -0.85168  -0.62991
 Alpha  occ. eigenvalues --   -0.54588  -0.47679  -0.37117  -0.26170
 Alpha virt. eigenvalues --    0.06359   0.10235   0.13877   0.29480   0.35115
 Alpha virt. eigenvalues --    0.37934   0.42267   0.42892   0.45703   0.47434
 Alpha virt. eigenvalues --    0.49317   0.53421   0.57730   0.59231   0.64189

  Beta  occ. eigenvalues --  -14.87216 -14.83237  -1.08884  -0.80768  -0.62221
  Beta  occ. eigenvalues --   -0.53284  -0.37978  -0.34379
  Beta virt. eigenvalues --    0.04230   0.06727   0.10611   0.14169   0.30517
  Beta virt. eigenvalues --    0.35337   0.40104   0.42757   0.43555   0.47955
  Beta virt. eigenvalues --    0.50298   0.51109   0.54420   0.58357   0.60422

 Mulliken charges and spin densities:
               1          2
     1  N   -0.343018   0.218777
     2  N   -0.319022   0.823469
     3  H    0.242991  -0.007432
     4  H    0.226767  -0.002158
     5  H    0.192282  -0.032656
 Sum of Mulliken charges =   0.00000   1.00000

 Dipole moment (field-independent basis, Debye):
    X=              1.8450    Y=              1.6541    Z=              0.7071  Tot=              2.5769
 Quadrupole moment (field-independent basis, Debye-Ang):
   XX=            -11.7257   YY=            -10.8519   ZZ=            -14.3280
   XY=             -2.2504   XZ=              1.0297   YZ=              0.1196

 Normal termination of Gaussian 09 at Sun Nov 13 00:01:32 2022.
