 Gaussian 09, Revision D.01,
 Gaussian 09:  ES64L-G09RevD.01 24-Apr-2013

 ----------------------------------------------------------------------
 #P guess=read ub2plypd3/def2tzvp freq IOp(7/33=1) scf=(tight, direct)
 integral=(grid=ultrafine, Acc2E=12) IOp(2/9=2000) scf=xqc
 ----------------------------------------------------------------------

 ---
 NH2
 ---
 Symbolic Z-matrix:
 Charge =  0 Multiplicity = 2

                         Standard orientation:
 ---------------------------------------------------------------------
 Center     Atomic      Atomic             Coordinates (Angstroms)
 Number     Number       Type             X           Y           Z
 ---------------------------------------------------------------------
      1          7           0        0.000000   -0.000000    0.141228
      2          1           0       -0.000000    0.804820   -0.494299
      3          1           0       -0.000000   -0.804820   -0.494299
 ---------------------------------------------------------------------

 SCF Done:  E(UB2PLYPD3) =  -55.7961678485     A.U. after    1 cycles
 E2(B2PLYPD3) =    -0.5769372188D-01 E(B2PLYPD3) =    -0.55853861570394D+02
 E2(B2PLYPD3) =    -0.5769372188D-01 E(B2PLYPD3) =    -0.55853861570394D+02

 The electronic state is 2-B1.
 Alpha  occ. eigenvalues --  -14.86801  -0.98461  -0.54790  -0.40419  -0.40022
 Alpha virt. eigenvalues --    0.06889   0.14042   0.36161   0.38085   0.39093
 Alpha virt. eigenvalues --    0.45999   0.51852   0.58104   1.00464   1.01423
 Alpha virt. eigenvalues --    1.05152   1.31629   1.34207   1.77667   1.93884

  Beta  occ. eigenvalues --  -14.84425  -0.90646  -0.53109  -0.37335
  Beta virt. eigenvalues --   -0.02211   0.07494   0.14408   0.36145   0.40109
  Beta virt. eigenvalues --    0.46189   0.47912   0.53496   0.59141   1.02455
  Beta virt. eigenvalues --    1.05447   1.10293   1.34469   1.37089   1.77323

 Mulliken charges and spin densities:
               1          2
     1  N   -0.439701   1.075361
     2  H    0.219851  -0.037681
     3  H    0.219851  -0.037681
 Sum of Mulliken charges =   0.00000   1.00000

 Dipole moment (field-independent basis, Debye):
    X=             -0.0000    Y=              0.0000    Z=             -1.9785  Tot=              1.9785
 Quadrupole moment (field-independent basis, Debye-Ang):
   XX=             -7.1322   YY=             -5.5254   ZZ=             -7.6203
   XY=              0.0000   XZ=              0.0000   YZ=             -0.0000

  Exact polarizability:   6.866  -0.000  11.025   0.000  -0.000   9.446
 Approx polarizability:   6.107   0.000  11.072   0.000  -0.000   9.043

                      1                      2                      3
                     A1                     A1                     B2
 Frequencies --   1543.1799              3377.0186              3473.4366
 Red. masses --      1.0922                 1.0493                 1.0902
 Frc consts  --      1.5324                 7.0507                 7.7497
 IR Inten    --     27.5016                 9.1672                 1.4674

 - Thermochemistry -
 -------------------
 Temperature   298.150 Kelvin.  Pressure   1.00000 Atm.
 Atom     1 has atomic number  7 and mass  14.00307

 Molecular mass:    16.01872 amu.
 Principal axes and moments of inertia in atomic units:
                           1         2         3
     Eigenvalues --     2.54142   4.66241   7.20383
           X            0.00000   0.00000   1.00000
           Y            1.00000   0.00000   0.00000
           Z           -0.00000   1.00000  -0.00000
 This molecule is an asymmetric top.
 Rotational symmetry number  2.
 Rotational temperatures (Kelvin)     34.08083    18.57706    12.02330
 Rotational constants (GHZ):         710.13003   387.08363   250.52524
 Zero-point vibrational energy      50205.1 (Joules/Mol)
                                   11.99930 (Kcal/Mol)
 Vibrational temperatures:   2220.29  4858.77  4997.49
          (Kelvin)

 Zero-point correction=                           0.019122 (Hartree/Particle)
 Thermal correction to Energy=                    0.021959
 Thermal correction to Enthalpy=                  0.022903
 Thermal correction to Gibbs Free Energy=         0.000814
 Sum of electronic and zero-point Energies=            -55.834739
 Sum of electronic and thermal Energies=               -55.831903
 Sum of electronic and thermal Enthalpies=             -55.830959
 Sum of electronic and thermal Free Energies=          -55.853048

                     E (Thermal)             CV                S
                      KCal/Mol        Cal/Mol-Kelvin    Cal/Mol-Kelvin
 Total                   13.779              6.026             46.490
 Electronic               0.000              0.000              1.377
 Translational            0.889              2.981             34.259
 Rotational               0.889              2.981             10.844
 Vibrational             12.002              0.064              0.010

 Optimization completed.
    -- Stationary point found.
 Normal termination of Gaussian 09 at Sat Nov 12 21:58:21 2022.
