 Gaussian 09, Revision D.01,
 Gaussian 09:  ES64L-G09RevD.01 24-Apr-2013

 ----------------------------------------------------------------------
 #P guess=read ub2plypd3/def2tzvp freq IOp(7/33=1) scf=(tight, direct)
 integral=(grid=ultrafine, Acc2E=12) IOp(2/9=2000) scf=xqc
 ----------------------------------------------------------------------

 --------------------
 [Hydroxyimino]methyl
 --------------------
 Symbolic Z-matrix:
 Charge =  0 Multiplicity = 2

                         Standard orientation:
 ---------------------------------------------------------------------
 Center     Atomic      Atomic             Coordinates (Angstroms)
 Number     Number       Type             X           Y           Z
 ---------------------------------------------------------------------
      1          6           0       -1.196350    0.326030    0.000000
      2          7           0        0.000000    0.514675    0.000000
      3          8           0        0.916494   -0.615312   -0.000000
      4          1           0       -1.924206   -0.473433    0.000000
      5          1           0        1.770352   -0.162976   -0.000000
 ---------------------------------------------------------------------

 SCF Done:  E(UB2PLYPD3) =  -168.889573142     A.U. after    1 cycles
 E2(B2PLYPD3) =    -0.1897969293D+00 E(B2PLYPD3) =    -0.16907937007099D+03
 E2(B2PLYPD3) =    -0.1897969293D+00 E(B2PLYPD3) =    -0.16907937007099D+03

 The electronic state is 2-A'.
 Alpha  occ. eigenvalues --  -19.78421 -14.91224 -10.68059  -1.22571  -1.02416
 Alpha  occ. eigenvalues --   -0.69682  -0.62657  -0.56590  -0.49406  -0.43055
 Alpha  occ. eigenvalues --   -0.36283  -0.30446
 Alpha virt. eigenvalues --    0.04890   0.07748   0.11164   0.16567   0.18143
 Alpha virt. eigenvalues --    0.26894   0.27493   0.32484   0.39389   0.46597
 Alpha virt. eigenvalues --    0.47293   0.48762   0.50668   0.53063   0.53877

  Beta  occ. eigenvalues --  -19.77600 -14.91269 -10.66223  -1.20757  -1.01033
  Beta  occ. eigenvalues --   -0.65764  -0.60922  -0.54631  -0.49305  -0.38528
  Beta  occ. eigenvalues --   -0.35339
  Beta virt. eigenvalues --   -0.03654   0.06138   0.08455   0.12130   0.17226
  Beta virt. eigenvalues --    0.19670   0.28757   0.30642   0.33371   0.40790
  Beta virt. eigenvalues --    0.47188   0.47264   0.49884   0.51497   0.53393

 Mulliken charges and spin densities:
               1          2
     1  C   -0.072712   0.871621
     2  N   -0.072649  -0.113766
     3  O   -0.359186   0.202061
     4  H    0.168673   0.040235
     5  H    0.335873  -0.000150
 Sum of Mulliken charges =  -0.00000   1.00000

 Dipole moment (field-independent basis, Debye):
    X=             -0.1483    Y=             -0.4565    Z=             -0.0000  Tot=              0.4799
 Quadrupole moment (field-independent basis, Debye-Ang):
   XX=            -10.8610   YY=            -19.9998   ZZ=            -18.2536
   XY=              2.0574   XZ=             -0.0000   YZ=             -0.0000

  Exact polarizability:  40.184  -3.233  21.075  -0.000   0.000  15.195
 Approx polarizability:  44.043  -2.370  22.756  -0.000   0.000  17.072

                      1                      2                      3
                     A'                     A"                     A'
 Frequencies --    375.0448               394.0076               611.0092
 Red. masses --      2.6644                 1.1083                11.3880
 Frc consts  --      0.2208                 0.1014                 2.5049
 IR Inten    --     19.7097               154.7869               197.8163

                      4                      5                      6
                     A"                     A'                     A'
 Frequencies --    730.5361               870.1395              1318.8533
 Red. masses --      1.5128                 1.5781                 1.1074
 Frc consts  --      0.4757                 0.7040                 1.1348
 IR Inten    --     28.7496                45.2831               107.1381

                      7                      8                      9
                     A'                     A'                     A'
 Frequencies --   1768.9782              3218.6418              3783.4664
 Red. masses --      7.2502                 1.1178                 1.0680
 Frc consts  --     13.3673                 6.8227                 9.0073
 IR Inten    --      8.8580                 2.3580                80.3407

 - Thermochemistry -
 -------------------
 Temperature   298.150 Kelvin.  Pressure   1.00000 Atm.
 Atom     1 has atomic number  6 and mass  12.00000

 Molecular mass:    44.01364 amu.
 Principal axes and moments of inertia in atomic units:
                           1         2         3
     Eigenvalues --    20.98938 153.22144 174.21082
           X            0.92412   0.38211   0.00000
           Y           -0.38211   0.92412  -0.00000
           Z           -0.00000   0.00000   1.00000
 This molecule is an asymmetric top.
 Rotational symmetry number  1.
 Rotational temperatures (Kelvin)      4.12655     0.56529     0.49718
 Rotational constants (GHZ):          85.98355    11.77865    10.35952
 Zero-point vibrational energy      78180.0 (Joules/Mol)
                                   18.68547 (Kcal/Mol)
 Warning -- explicit consideration of   3 degrees of freedom as
           vibrations may cause significant error
 Vibrational temperatures:    539.61   566.89   879.10  1051.08  1251.94
          (Kelvin)           1897.53  2545.16  4630.90  5443.56

 Zero-point correction=                           0.029777 (Hartree/Particle)
 Thermal correction to Energy=                    0.033587
 Thermal correction to Enthalpy=                  0.034531
 Thermal correction to Gibbs Free Energy=         0.004818
 Sum of electronic and zero-point Energies=           -169.049593
 Sum of electronic and thermal Energies=              -169.045783
 Sum of electronic and thermal Enthalpies=            -169.044839
 Sum of electronic and thermal Free Energies=         -169.074552

                     E (Thermal)             CV                S
                      KCal/Mol        Cal/Mol-Kelvin    Cal/Mol-Kelvin
 Total                   21.076             11.458             62.537
 Electronic               0.000              0.000              1.377
 Translational            0.889              2.981             37.272
 Rotational               0.889              2.981             20.954
 Vibrational             19.299              5.496              2.933
 Vibration     1          0.746              1.523              1.059
 Vibration     2          0.761              1.483              0.985
 Vibration     3          0.970              1.009              0.431

 Optimization completed.
    -- Stationary point found.
 Normal termination of Gaussian 09 at Sat Nov 12 22:00:36 2022.
