 Gaussian 09, Revision D.01,
 Gaussian 09:  ES64L-G09RevD.01 24-Apr-2013

 ----------------------------------------------------------------------
 #P opt=(modredundant, calcfc, noeigentest, maxStep=5) scf=(tight, dire
 ct) integral=(grid=ultrafine, Acc2E=12) guess=read ub2plypd3/def2tzvp
 IOp(2/9=2000) scf=xqc
 ----------------------------------------------------------------------

 --------------------
 [Hydroxyimino]methyl
 --------------------
 Symbolic Z-matrix:
 Charge =  0 Multiplicity = 2

 SCF Done:  E(UB2PLYPD3) =  -168.889573142     A.U. after    1 cycles
 E2(B2PLYPD3) =    -0.1897969293D+00 E(B2PLYPD3) =    -0.16907937007099D+03
 E2(B2PLYPD3) =    -0.1897969293D+00 E(B2PLYPD3) =    -0.16907937007099D+03

  Exact polarizability:  40.184  -3.233  21.075  -0.000   0.000  15.195
 Approx polarizability:  44.043  -2.370  22.756  -0.000   0.000  17.072

 Optimization completed.
    -- Stationary point found.
 SCF Done:  E(UB2PLYPD3) =  -168.889431873     A.U. after   15 cycles
 E2(B2PLYPD3) =    -0.1897772387D+00 E(B2PLYPD3) =    -0.16907920911154D+03
 Optimization completed.
 SCF Done:  E(UB2PLYPD3) =  -168.889017538     A.U. after   17 cycles
 E2(B2PLYPD3) =    -0.1897171161D+00 E(B2PLYPD3) =    -0.16907873465389D+03
 SCF Done:  E(UB2PLYPD3) =  -168.888352082     A.U. after   17 cycles
 E2(B2PLYPD3) =    -0.1896183933D+00 E(B2PLYPD3) =    -0.16907797047539D+03
 SCF Done:  E(UB2PLYPD3) =  -168.888359353     A.U. after   13 cycles
 E2(B2PLYPD3) =    -0.1896114909D+00 E(B2PLYPD3) =    -0.16907797084414D+03
 SCF Done:  E(UB2PLYPD3) =  -168.887468176     A.U. after   17 cycles
 E2(B2PLYPD3) =    -0.1894878479D+00 E(B2PLYPD3) =    -0.16907695602407D+03
 SCF Done:  E(UB2PLYPD3) =  -168.887475339     A.U. after   12 cycles
 E2(B2PLYPD3) =    -0.1894812508D+00 E(B2PLYPD3) =    -0.16907695658985D+03
 SCF Done:  E(UB2PLYPD3) =  -168.886409362     A.U. after   17 cycles
 E2(B2PLYPD3) =    -0.1893354388D+00 E(B2PLYPD3) =    -0.16907574480065D+03
 SCF Done:  E(UB2PLYPD3) =  -168.886413602     A.U. after   11 cycles
 E2(B2PLYPD3) =    -0.1893319576D+00 E(B2PLYPD3) =    -0.16907574555993D+03
 SCF Done:  E(UB2PLYPD3) =  -168.885227479     A.U. after   17 cycles
 E2(B2PLYPD3) =    -0.1891750104D+00 E(B2PLYPD3) =    -0.16907440248916D+03
 E2(B2PLYPD3) =    -0.1891779770D+00 E(B2PLYPD3) =    -0.16907440344081D+03
 E2(B2PLYPD3) =    -0.1890231624D+00 E(B2PLYPD3) =    -0.16907300403058D+03
 E2(B2PLYPD3) =    -0.1890365865D+00 E(B2PLYPD3) =    -0.16907300533080D+03
 E2(B2PLYPD3) =    -0.1888985628D+00 E(B2PLYPD3) =    -0.16907162951202D+03
 E2(B2PLYPD3) =    -0.1889269408D+00 E(B2PLYPD3) =    -0.16907163142517D+03
 E2(B2PLYPD3) =    -0.1888200743D+00 E(B2PLYPD3) =    -0.16907035999642D+03
 E2(B2PLYPD3) =    -0.1888672965D+00 E(B2PLYPD3) =    -0.16907036288385D+03
 E2(B2PLYPD3) =    -0.1888032493D+00 E(B2PLYPD3) =    -0.16906927116657D+03
 E2(B2PLYPD3) =    -0.1888700536D+00 E(B2PLYPD3) =    -0.16906927534564D+03
 E2(B2PLYPD3) =    -0.1889638795D+00 E(B2PLYPD3) =    -0.16906926986811D+03
 E2(B2PLYPD3) =    -0.1888778237D+00 E(B2PLYPD3) =    -0.16906927535569D+03
 E2(B2PLYPD3) =    -0.1889482728D+00 E(B2PLYPD3) =    -0.16907035864275D+03
 E2(B2PLYPD3) =    -0.1888722585D+00 E(B2PLYPD3) =    -0.16907036290576D+03
 E2(B2PLYPD3) =    -0.1889865993D+00 E(B2PLYPD3) =    -0.16907162846507D+03
 E2(B2PLYPD3) =    -0.1889285766D+00 E(B2PLYPD3) =    -0.16907163143486D+03
 E2(B2PLYPD3) =    -0.1890734332D+00 E(B2PLYPD3) =    -0.16907300335816D+03
 E2(B2PLYPD3) =    -0.1890358416D+00 E(B2PLYPD3) =    -0.16907300533399D+03
 E2(B2PLYPD3) =    -0.1891958665D+00 E(B2PLYPD3) =    -0.16907440210708D+03
 E2(B2PLYPD3) =    -0.1891763669D+00 E(B2PLYPD3) =    -0.16907440344108D+03
 SCF Done:  E(UB2PLYPD3) =  -168.886407818     A.U. after   17 cycles
 E2(B2PLYPD3) =    -0.1893367484D+00 E(B2PLYPD3) =    -0.16907574456665D+03
 SCF Done:  E(UB2PLYPD3) =  -168.886414828     A.U. after   13 cycles
 E2(B2PLYPD3) =    -0.1893307090D+00 E(B2PLYPD3) =    -0.16907574553655D+03
 SCF Done:  E(UB2PLYPD3) =  -168.887477503     A.U. after   17 cycles
 E2(B2PLYPD3) =    -0.1894783345D+00 E(B2PLYPD3) =    -0.16907695583740D+03
 SCF Done:  E(UB2PLYPD3) =  -168.887475762     A.U. after   11 cycles
 E2(B2PLYPD3) =    -0.1894808050D+00 E(B2PLYPD3) =    -0.16907695656724D+03
 SCF Done:  E(UB2PLYPD3) =  -168.888365142     A.U. after   17 cycles
 E2(B2PLYPD3) =    -0.1896051453D+00 E(B2PLYPD3) =    -0.16907797028775D+03
 SCF Done:  E(UB2PLYPD3) =  -168.888359119     A.U. after   12 cycles
 E2(B2PLYPD3) =    -0.1896117105D+00 E(B2PLYPD3) =    -0.16907797082901D+03
 SCF Done:  E(UB2PLYPD3) =  -168.889029231     A.U. after   17 cycles
 E2(B2PLYPD3) =    -0.1897052713D+00 E(B2PLYPD3) =    -0.16907873450258D+03
 SCF Done:  E(UB2PLYPD3) =  -168.889022468     A.U. after   12 cycles
 E2(B2PLYPD3) =    -0.1897124033D+00 E(B2PLYPD3) =    -0.16907873487083D+03
 SCF Done:  E(UB2PLYPD3) =  -168.889438768     A.U. after   17 cycles
 E2(B2PLYPD3) =    -0.1897702771D+00 E(B2PLYPD3) =    -0.16907920904526D+03
    -- Stationary point found.
 SCF Done:  E(UB2PLYPD3) =  -168.889574551     A.U. after   15 cycles
 E2(B2PLYPD3) =    -0.1897953700D+00 E(B2PLYPD3) =    -0.16907936992093D+03
 Optimization completed.
    -- Stationary point found.

                         Standard orientation:
 ---------------------------------------------------------------------
 Center     Atomic      Atomic             Coordinates (Angstroms)
 Number     Number       Type             X           Y           Z
 ---------------------------------------------------------------------
      1          6           0       -1.237809   -0.073345   -0.000353
      2          7           0       -0.164488    0.487732    0.000203
      3          8           0        1.065013   -0.290188   -0.000127
      4          1           0       -1.671546   -1.063730    0.001252
      5          1           0        1.729712    0.411175    0.000458
 ---------------------------------------------------------------------

 The electronic state is 2-A.
 Alpha  occ. eigenvalues --  -19.78421 -14.91224 -10.68059  -1.22571  -1.02416
 Alpha  occ. eigenvalues --   -0.69681  -0.62657  -0.56588  -0.49406  -0.43055
 Alpha  occ. eigenvalues --   -0.36283  -0.30450
 Alpha virt. eigenvalues --    0.04891   0.07747   0.11164   0.16569   0.18144
 Alpha virt. eigenvalues --    0.26893   0.27494   0.32483   0.39388   0.46594
 Alpha virt. eigenvalues --    0.47293   0.48768   0.50670   0.53062   0.53881

  Beta  occ. eigenvalues --  -19.77601 -14.91269 -10.66223  -1.20757  -1.01034
  Beta  occ. eigenvalues --   -0.65762  -0.60923  -0.54629  -0.49306  -0.38527
  Beta  occ. eigenvalues --   -0.35339
  Beta virt. eigenvalues --   -0.03657   0.06139   0.08454   0.12131   0.17227
  Beta virt. eigenvalues --    0.19670   0.28757   0.30641   0.33369   0.40788
  Beta virt. eigenvalues --    0.47188   0.47261   0.49891   0.51497   0.53392

 Mulliken charges and spin densities:
               1          2
     1  C   -0.072714   0.871616
     2  N   -0.072613  -0.113783
     3  O   -0.359204   0.202027
     4  H    0.168649   0.040291
     5  H    0.335882  -0.000151
 Sum of Mulliken charges =  -0.00000   1.00000

 Dipole moment (field-independent basis, Debye):
    X=              0.0063    Y=             -0.4800    Z=              0.0024  Tot=              0.4801
 Quadrupole moment (field-independent basis, Debye-Ang):
   XX=            -13.0410   YY=            -17.8205   ZZ=            -18.2536
   XY=              4.4034   XZ=             -0.0007   YZ=             -0.0008

 Normal termination of Gaussian 09 at Sun Nov 13 00:15:37 2022.
