                               Psi4 1.3.2 release

  ==> Input File <==

--------------------------------------------------------------------------
memory 1024 mb

molecule mol {
0 1
O 0.00000000 0.00000000 0.00000000
H 0.00000000 0.28053300 -0.90381100
O 0.00000000 -1.39778000 0.00000000
H 0.00000000 -1.67831300 -0.90381100

}
set {
  basis 6-31G(d_p)
  opt_type ts
  full_hess_every 0
  geom_maxiter 50
  print 3

}

e, wfn = optimize('scf', return_wfn=True)
scf_e, wfn=frequencies('scf', return_wfn=True, dertype=1)
wfn.hessian().print_out()

--------------------------------------------------------------------------

    Molecular point group: c2v
  Charge       = 0
  Multiplicity = 1
  @DF-RHF Final Energy:  -150.76304429291787
    Total Energy =                       -150.7630442929178685
    Molecular point group: c2v
  @DF-RHF Final Energy:  -150.76304429291787
    Total Energy =                       -150.7630442929178685
  @DF-RHF Final Energy:  -150.76304429291787
    Total Energy =                       -150.7630442929178685

  Vibration                       1                   8                   9
  Freq [cm^-1]                641.3881i           1155.0829           1490.8712
  Irrep                           A2                  A1                  A1
  Reduced mass [u]              1.1238             14.3259              1.0130
  Force const [mDyne/A]        -0.2724             11.2616              1.3265

  IR activ [km/mol]             0.0000              0.4696              0.9324

  Vibration                       10                  11                  12
  Freq [cm^-1]                1630.3221           4118.3345           4156.9274
  Irrep                           B2                  B2                  A1
  Reduced mass [u]              1.2063              1.0690              1.0697
  Force const [mDyne/A]         1.8891             10.6828             10.8904

  IR activ [km/mol]            56.5735             17.0743             58.6548

    Irrep   Nso     Nmo     Nalpha   Nbeta   Ndocc  Nsocc

  @DF-RHF Final Energy:  -150.76306548157612
    Total Energy =                       -150.7630654815761204
  **** Optimization is complete! (in 2 steps) ****
    Final optimized geometry and variables:

    Irrep   Nso     Nmo     Nalpha   Nbeta   Ndocc  Nsocc

  @DF-RHF Final Energy:  -150.76306548157612
    Total Energy =                       -150.7630654815761204

     Irrep 1: 3
     Irrep 2: 1
     Irrep 3: 0
     Irrep 4: 2

      Irrep 1: 6
      Irrep 2: 1
      Irrep 3: 0
      Irrep 4: 2

    Irrep   Nso     Nmo     Nalpha   Nbeta   Ndocc  Nsocc

  @DF-RHF Final Energy:  -150.76306548157612
    Total Energy =                       -150.7630654815761204

    Irrep   Nso     Nmo     Nalpha   Nbeta   Ndocc  Nsocc

  @DF-RHF Final Energy:  -150.76306473831283
    Total Energy =                       -150.7630647383128348

    Irrep   Nso     Nmo     Nalpha   Nbeta   Ndocc  Nsocc

  @DF-RHF Final Energy:  -150.76306488815106
    Total Energy =                       -150.7630648881510638

    Irrep   Nso     Nmo     Nalpha   Nbeta   Ndocc  Nsocc

  @DF-RHF Final Energy:  -150.76305772646481
    Total Energy =                       -150.7630577264648082

    Irrep   Nso     Nmo     Nalpha   Nbeta   Ndocc  Nsocc

  @DF-RHF Final Energy:  -150.76305786752272
    Total Energy =                       -150.7630578675227184

    Irrep   Nso     Nmo     Nalpha   Nbeta   Ndocc  Nsocc

  @DF-RHF Final Energy:  -150.76306392458409
    Total Energy =                       -150.7630639245840882

    Irrep   Nso     Nmo     Nalpha   Nbeta   Ndocc  Nsocc

  @DF-RHF Final Energy:  -150.76306393684078
    Total Energy =                       -150.7630639368407799

    Irrep   Nso     Nmo     Nalpha   Nbeta   Ndocc  Nsocc

  @DF-RHF Final Energy:  -150.76306568364370
    Total Energy =                       -150.7630656836437026

    Irrep   Nso     Nmo     Nalpha   Nbeta   Ndocc  Nsocc

  @DF-RHF Final Energy:  -150.76306365491419
    Total Energy =                       -150.7630636549141911
    Molecular point group: cs
  Charge       = 0
  Multiplicity = 1

    Irrep   Nso     Nmo     Nalpha   Nbeta   Ndocc  Nsocc

    Orbital Energies [Eh]
    ---------------------

    Doubly Occupied:

       1Ap   -20.630566     2Ap   -20.629950     3Ap    -1.495111
       4Ap    -1.211302     5Ap    -0.781070     1App   -0.633434
       6Ap    -0.605305     7Ap    -0.567973     2App   -0.444840

  @DF-RHF Final Energy:  -150.76305796874470

   => Energetics <=

    Nuclear Repulsion Energy =             37.8250117314882246
    One-Electron Energy =                -283.1770379303730465
    Two-Electron Energy =                  94.5889682301400967
    Total Energy =                       -150.7630579687447323

  Dipole Moment: [D]
     X:     0.0000      Y:    -0.0007      Z:    -3.5021     Total:     3.5021

    Molecular point group: cs

    Geometry (in Angstrom), charge = 0, multiplicity = 1:

       Center              X                  Y                   Z               Mass
    ------------   -----------------  -----------------  -----------------  -----------------
         O            0.000000000000     0.701116220046     0.053449318336    15.994914619570
         H            0.000000000000     0.976002227010    -0.848969247984     1.007825032230
         O            0.000000000000    -0.701116220046     0.053757950579    15.994914619570
         H            0.000000000000    -0.976002227010    -0.852487907838     1.007825032230

  -Total Gradient:
     Atom            X                  Y                   Z
    ------   -----------------  -----------------  -----------------
       1        0.000000000000     0.000466410418    -0.002243772581
       2        0.000000000000    -0.000508519459     0.002082781625
       3        0.000000000000     0.000539090647     0.002207344230
       4        0.000000000000    -0.000496981607    -0.002046353274

  Vibration                       1                   8                   9
  Freq [cm^-1]                653.3950i           1140.5369           1486.2169
  Irrep                           A2                  A1                  A1
  Reduced mass [u]              1.1222             14.4445              1.0125
  Force const [mDyne/A]        -0.2823             11.0706              1.3176

  Vibration                       10                  11                  12
  Freq [cm^-1]                1624.2950           4135.8693           4174.5898
  Irrep                           B2                  B2                  A1
  Reduced mass [u]              1.2045              1.0690              1.0696
  Force const [mDyne/A]         1.8723             10.7735             10.9821

  ==> Thermochemistry Components <==

  Entropy, S
    Electronic S            0.000 [cal/(mol K)]        0.000 [J/(mol K)]       0.00000000 [mEh/K] (multiplicity = 1)
    Translational S        36.503 [cal/(mol K)]      152.728 [J/(mol K)]       0.05817083 [mEh/K] (mol. weight = 34.0055 [u], P = 101325.00 [Pa])
    Rotational S           16.443 [cal/(mol K)]       68.799 [J/(mol K)]       0.02620426 [mEh/K] (symmetry no. = 2)
    Vibrational S           0.072 [cal/(mol K)]        0.302 [J/(mol K)]       0.00011509 [mEh/K]
  Total S                  53.018 [cal/(mol K)]      221.829 [J/(mol K)]       0.08449019 [mEh/K]
  Correction S              0.000 [cal/(mol K)]        0.000 [J/(mol K)]       0.00000000 [mEh/K]

  Constant volume heat capacity, Cv
    Electronic Cv           0.000 [cal/(mol K)]        0.000 [J/(mol K)]       0.00000000 [mEh/K]
    Translational Cv        2.981 [cal/(mol K)]       12.472 [J/(mol K)]       0.00475022 [mEh/K]
    Rotational Cv           2.981 [cal/(mol K)]       12.472 [J/(mol K)]       0.00475022 [mEh/K]
    Vibrational Cv          0.374 [cal/(mol K)]        1.564 [J/(mol K)]       0.00059578 [mEh/K]
  Total Cv                  6.335 [cal/(mol K)]       26.508 [J/(mol K)]       0.01009621 [mEh/K]
  Correction Cv             0.000 [cal/(mol K)]        0.000 [J/(mol K)]       0.00000000 [mEh/K]

  Constant pressure heat capacity, Cp
    Electronic Cp           0.000 [cal/(mol K)]        0.000 [J/(mol K)]       0.00000000 [mEh/K]
    Translational Cp        4.968 [cal/(mol K)]       20.786 [J/(mol K)]       0.00791703 [mEh/K]
    Rotational Cp           2.981 [cal/(mol K)]       12.472 [J/(mol K)]       0.00475022 [mEh/K]
    Vibrational Cp          0.374 [cal/(mol K)]        1.564 [J/(mol K)]       0.00059578 [mEh/K]
  Total Cp                  8.323 [cal/(mol K)]       34.822 [J/(mol K)]       0.01326302 [mEh/K]
  Correction Cp             0.000 [cal/(mol K)]        0.000 [J/(mol K)]       0.00000000 [mEh/K]

  ==> Thermochemistry Energy Analysis <==

  Raw electronic energy, E0
  Total E0, Electronic energy at well bottom at 0 [K]                 -150.76306548 [Eh]

  Zero-point energy, ZPE_vib = Sum_i nu_i / 2
    Electronic ZPE          0.000 [kcal/mol]        0.000 [kJ/mol]       0.00000000 [Eh]
    Translational ZPE       0.000 [kcal/mol]        0.000 [kJ/mol]       0.00000000 [Eh]
    Rotational ZPE          0.000 [kcal/mol]        0.000 [kJ/mol]       0.00000000 [Eh]
    Vibrational ZPE        17.958 [kcal/mol]       75.135 [kJ/mol]       0.02861722 [Eh]        6280.754 [cm^-1]
  Correction ZPE           17.958 [kcal/mol]       75.135 [kJ/mol]       0.02861722 [Eh]        6280.754 [cm^-1]
  Total ZPE, Electronic energy at 0 [K]                               -150.73444826 [Eh]

  Thermal Energy, E (includes ZPE)
    Electronic E            0.000 [kcal/mol]        0.000 [kJ/mol]       0.00000000 [Eh]
    Translational E         0.889 [kcal/mol]        3.718 [kJ/mol]       0.00141628 [Eh]
    Rotational E            0.889 [kcal/mol]        3.718 [kJ/mol]       0.00141628 [Eh]
    Vibrational E          17.976 [kcal/mol]       75.212 [kJ/mol]       0.02864659 [Eh]
  Correction E             19.753 [kcal/mol]       82.648 [kJ/mol]       0.03147914 [Eh]
  Total E, Electronic energy at  298.15 [K]                           -150.73158634 [Eh]

  Enthalpy, H_trans = E_trans + k_B * T
    Electronic H            0.000 [kcal/mol]        0.000 [kJ/mol]       0.00000000 [Eh]
    Translational H         1.481 [kcal/mol]        6.197 [kJ/mol]       0.00236046 [Eh]
    Rotational H            0.889 [kcal/mol]        3.718 [kJ/mol]       0.00141628 [Eh]
    Vibrational H          17.976 [kcal/mol]       75.212 [kJ/mol]       0.02864659 [Eh]
  Correction H             20.346 [kcal/mol]       85.127 [kJ/mol]       0.03242332 [Eh]
  Total H, Enthalpy at  298.15 [K]                                    -150.73064216 [Eh]

  Gibbs free energy, G = H - T * S
    Electronic G            0.000 [kcal/mol]        0.000 [kJ/mol]       0.00000000 [Eh]
    Translational G        -9.402 [kcal/mol]      -39.338 [kJ/mol]      -0.01498317 [Eh]
    Rotational G           -4.014 [kcal/mol]      -16.794 [kJ/mol]      -0.00639652 [Eh]
    Vibrational G          17.954 [kcal/mol]       75.122 [kJ/mol]       0.02861227 [Eh]
  Correction G              4.539 [kcal/mol]       18.989 [kJ/mol]       0.00723257 [Eh]
  Total G, Free enthalpy at  298.15 [K]                               -150.75583291 [Eh]

*** Psi4 exiting successfully. Buy a developer a beer!
