                               Psi4 1.3.2 release

  ==> Input File <==

--------------------------------------------------------------------------
memory 1024 mb

molecule mol {
0 1
O                 -1.02870815   -0.00797448    0.00000000
H                 -0.06870815   -0.00797448    0.00000000
H                 -1.34916274    0.89696135    0.00000000
}
set {
  basis 6-31G(d_p)
  geom_maxiter 50
  print 3
}

e, wfn = optimize('scf', return_wfn=True)
scf_e, wfn=frequencies('scf', return_wfn=True, dertype=1)
wfn.hessian().print_out()

--------------------------------------------------------------------------

    Molecular point group: c2v
  Charge       = 0
  Multiplicity = 1
  @DF-RHF Final Energy:   -76.02251329733997
    Total Energy =                        -76.0225132973399838
    Molecular point group: c2v
  @DF-RHF Final Energy:   -76.02353802727352
    Total Energy =                        -76.0235380272735028
  @DF-RHF Final Energy:   -76.02358055609371
    Total Energy =                        -76.0235805560937052
  **** Optimization is complete! (in 3 steps) ****
    Final optimized geometry and variables:
  @DF-RHF Final Energy:   -76.02358055609365
    Total Energy =                        -76.0235805560936484
  @DF-RHF Final Energy:   -76.02358055609362
    Total Energy =                        -76.0235805560936200
  @DF-RHF Final Energy:   -76.02357600898067
    Total Energy =                        -76.0235760089806831
  @DF-RHF Final Energy:   -76.02357765911238
    Total Energy =                        -76.0235776591123624
  @DF-RHF Final Energy:   -76.02357629875451
    Total Energy =                        -76.0235762987545058
  @DF-RHF Final Energy:   -76.02357304163611
    Total Energy =                        -76.0235730416360980
    Molecular point group: cs
  Charge       = 0
  Multiplicity = 1

    Orbital Energies [Eh]
    ---------------------

    Doubly Occupied:

       1Ap   -20.557287     2Ap    -1.346352     3Ap    -0.713835
       4Ap    -0.568185     1App   -0.497573

  @DF-RHF Final Energy:   -76.02357196456609

   => Energetics <=

    Nuclear Repulsion Energy =              9.3275385240706381
    One-Electron Energy =                -123.3357559876915133
    Two-Electron Energy =                  37.9846454990547926
    Total Energy =                        -76.0235719645660879

  Dipole Moment: [D]
     X:     0.0031      Y:     0.0000      Z:     2.1475     Total:     2.1475

    Molecular point group: cs

    Geometry (in Angstrom), charge = 0, multiplicity = 1:

       Center              X                  Y                   Z               Mass
    ------------   -----------------  -----------------  -----------------  -----------------
         O           -0.000180444466     0.000000000000    -0.063533652351    15.994914619570
         H            0.754716704878     0.000000000000     0.505241697533     1.007825032230
         H           -0.751852920255     0.000000000000     0.503083470360     1.007825032230

  -Total Gradient:
     Atom            X                  Y                   Z
    ------   -----------------  -----------------  -----------------
       1       -0.003748696129     0.000000000000    -0.000202148724
       2        0.002095776713     0.000000000000     0.001513735615
       3        0.001652919416     0.000000000000    -0.001311586891

  Vibration                       7                   8                   9
  Freq [cm^-1]                1770.2755           4144.5208           4261.7445
  Irrep                           A1                  A1                  B1
  Reduced mass [u]              1.0831              1.0448              1.0833
  Force const [mDyne/A]         1.9999             10.5734             11.5928

  ==> Thermochemistry Components <==

  Entropy, S
    Electronic S            0.000 [cal/(mol K)]        0.000 [J/(mol K)]       0.00000000 [mEh/K] (multiplicity = 1)
    Translational S        34.608 [cal/(mol K)]      144.801 [J/(mol K)]       0.05515177 [mEh/K] (mol. weight = 18.0106 [u], P = 101325.00 [Pa])
    Rotational S           10.346 [cal/(mol K)]       43.287 [J/(mol K)]       0.01648701 [mEh/K] (symmetry no. = 2)
    Vibrational S           0.004 [cal/(mol K)]        0.015 [J/(mol K)]       0.00000589 [mEh/K]
  Total S                  44.958 [cal/(mol K)]      188.103 [J/(mol K)]       0.07164468 [mEh/K]
  Correction S              0.000 [cal/(mol K)]        0.000 [J/(mol K)]       0.00000000 [mEh/K]

  Constant volume heat capacity, Cv
    Electronic Cv           0.000 [cal/(mol K)]        0.000 [J/(mol K)]       0.00000000 [mEh/K]
    Translational Cv        2.981 [cal/(mol K)]       12.472 [J/(mol K)]       0.00475022 [mEh/K]
    Rotational Cv           2.981 [cal/(mol K)]       12.472 [J/(mol K)]       0.00475022 [mEh/K]
    Vibrational Cv          0.028 [cal/(mol K)]        0.118 [J/(mol K)]       0.00004508 [mEh/K]
  Total Cv                  5.990 [cal/(mol K)]       25.062 [J/(mol K)]       0.00954551 [mEh/K]
  Correction Cv             0.000 [cal/(mol K)]        0.000 [J/(mol K)]       0.00000000 [mEh/K]

  Constant pressure heat capacity, Cp
    Electronic Cp           0.000 [cal/(mol K)]        0.000 [J/(mol K)]       0.00000000 [mEh/K]
    Translational Cp        4.968 [cal/(mol K)]       20.786 [J/(mol K)]       0.00791703 [mEh/K]
    Rotational Cp           2.981 [cal/(mol K)]       12.472 [J/(mol K)]       0.00475022 [mEh/K]
    Vibrational Cp          0.028 [cal/(mol K)]        0.118 [J/(mol K)]       0.00004508 [mEh/K]
  Total Cp                  7.977 [cal/(mol K)]       33.376 [J/(mol K)]       0.01271232 [mEh/K]
  Correction Cp             0.000 [cal/(mol K)]        0.000 [J/(mol K)]       0.00000000 [mEh/K]

  ==> Thermochemistry Energy Analysis <==

  Raw electronic energy, E0
  Total E0, Electronic energy at well bottom at 0 [K]                  -76.02358056 [Eh]

  Zero-point energy, ZPE_vib = Sum_i nu_i / 2
    Electronic ZPE          0.000 [kcal/mol]        0.000 [kJ/mol]       0.00000000 [Eh]
    Translational ZPE       0.000 [kcal/mol]        0.000 [kJ/mol]       0.00000000 [Eh]
    Rotational ZPE          0.000 [kcal/mol]        0.000 [kJ/mol]       0.00000000 [Eh]
    Vibrational ZPE        14.548 [kcal/mol]       60.869 [kJ/mol]       0.02318387 [Eh]        5088.270 [cm^-1]
  Correction ZPE           14.548 [kcal/mol]       60.869 [kJ/mol]       0.02318387 [Eh]        5088.270 [cm^-1]
  Total ZPE, Electronic energy at 0 [K]                                -76.00039669 [Eh]

  Thermal Energy, E (includes ZPE)
    Electronic E            0.000 [kcal/mol]        0.000 [kJ/mol]       0.00000000 [Eh]
    Translational E         0.889 [kcal/mol]        3.718 [kJ/mol]       0.00141628 [Eh]
    Rotational E            0.889 [kcal/mol]        3.718 [kJ/mol]       0.00141628 [Eh]
    Vibrational E          14.549 [kcal/mol]       60.873 [kJ/mol]       0.02318544 [Eh]
  Correction E             16.327 [kcal/mol]       68.310 [kJ/mol]       0.02601799 [Eh]
  Total E, Electronic energy at  298.15 [K]                            -75.99756256 [Eh]

  Enthalpy, H_trans = E_trans + k_B * T
    Electronic H            0.000 [kcal/mol]        0.000 [kJ/mol]       0.00000000 [Eh]
    Translational H         1.481 [kcal/mol]        6.197 [kJ/mol]       0.00236046 [Eh]
    Rotational H            0.889 [kcal/mol]        3.718 [kJ/mol]       0.00141628 [Eh]
    Vibrational H          14.549 [kcal/mol]       60.873 [kJ/mol]       0.02318544 [Eh]
  Correction H             16.919 [kcal/mol]       70.789 [kJ/mol]       0.02696218 [Eh]
  Total H, Enthalpy at  298.15 [K]                                     -75.99661838 [Eh]

  Gibbs free energy, G = H - T * S
    Electronic G            0.000 [kcal/mol]        0.000 [kJ/mol]       0.00000000 [Eh]
    Translational G        -8.837 [kcal/mol]      -36.975 [kJ/mol]      -0.01408304 [Eh]
    Rotational G           -2.196 [kcal/mol]       -9.187 [kJ/mol]      -0.00349933 [Eh]
    Vibrational G          14.548 [kcal/mol]       60.869 [kJ/mol]       0.02318368 [Eh]
  Correction G              3.515 [kcal/mol]       14.706 [kJ/mol]       0.00560132 [Eh]
  Total G, Free enthalpy at  298.15 [K]                                -76.01797924 [Eh]

*** Psi4 exiting successfully. Buy a developer a beer!
