                               Psi4 1.3.2 release

  ==> Input File <==

--------------------------------------------------------------------------
memory 1024 mb

molecule mol {
0 1
O 0.00000000 0.00000000 0.00000000
H 0.00000000 0.28053300 -0.90381100
O 0.00000000 -1.39778000 0.00000000
H 0.00000000 -1.67831300 -0.90381100

}
set {
  scf_type DIRECT
  basis 6-31G(d_p)
  reference uks
  opt_type ts
  full_hess_every 0
  geom_maxiter 50
  print 3
}

optimize('b3lyp')
scf_e, wfn=frequencies('b3lyp', return_wfn=True, dertype=1)
wfn.hessian().print_out()

--------------------------------------------------------------------------

    Molecular point group: c2v
  Charge       = 0
  Multiplicity = 1
  @UKS Final Energy:  -151.52635797559770
    Total Energy =                       -151.5263579755977332
    Molecular point group: c2v
  @UKS Final Energy:  -151.52635797559770
    Total Energy =                       -151.5263579755977332
  @UKS Final Energy:  -151.52635797559770
    Total Energy =                       -151.5263579755977332
  @UKS Final Energy:  -151.52629926784482
    Total Energy =                       -151.5262992678447915
  @UKS Final Energy:  -151.52641539163506
    Total Energy =                       -151.5264153916350267
  @UKS Final Energy:  -151.52617510652135
    Total Energy =                       -151.5261751065213502
  @UKS Final Energy:  -151.52652605396267
    Total Energy =                       -151.5265260539626979
  @UKS Final Energy:  -151.52631561428507
    Total Energy =                       -151.5263156142850676
  @UKS Final Energy:  -151.52639777420967
    Total Energy =                       -151.5263977742096415
  @UKS Final Energy:  -151.52635803497361
    Total Energy =                       -151.5263580349736117
  @UKS Final Energy:  -151.52635833746933
    Total Energy =                       -151.5263583374693042
  @UKS Final Energy:  -151.52635816208220
    Total Energy =                       -151.5263581620821753
  @UKS Final Energy:  -151.52635656712761
    Total Energy =                       -151.5263565671276638
  @UKS Final Energy:  -151.52635741899428
    Total Energy =                       -151.5263574189942801
  @UKS Final Energy:  -151.52635121687194
    Total Energy =                       -151.5263512168719728

  Vibration                       1                   2                   3
  Freq [cm^-1]                918.2825i           627.8464i           279.6146i
  Irrep                           A2                  B1                  B2
  Reduced mass [u]              1.1120              1.0671              3.9412
  Force const [mDyne/A]        -0.5525             -0.2478             -0.1816

  Vibration                       4                   8                   9
  Freq [cm^-1]                213.1645i           1102.0993           1283.3000
  Irrep                           A2                  A1                  A1
  Reduced mass [u]              6.4312              6.6324              1.1034
  Force const [mDyne/A]        -0.1722              4.7463              1.0706

  Vibration                       10                  11                  12
  Freq [cm^-1]                1428.2739           4060.3474           4104.7430
  Irrep                           B2                  B2                  A1
  Reduced mass [u]              1.2465              1.0685              1.0697
  Force const [mDyne/A]         1.4982             10.3789             10.6195

    Irrep   Nso     Nmo     Nalpha   Nbeta   Ndocc  Nsocc

  @UKS Final Energy:  -151.52979725522047
    Total Energy =                       -151.5297972552204726

    Irrep   Nso     Nmo     Nalpha   Nbeta   Ndocc  Nsocc

  @UKS Final Energy:  -151.52987160603976
    Total Energy =                       -151.5298716060397624

    Irrep   Nso     Nmo     Nalpha   Nbeta   Ndocc  Nsocc

  @UKS Final Energy:  -151.52987375821814
    Total Energy =                       -151.5298737582181445
  **** Optimization is complete! (in 4 steps) ****
    Final optimized geometry and variables:

    Irrep   Nso     Nmo     Nalpha   Nbeta   Ndocc  Nsocc

  @UKS Final Energy:  -151.52987375821823
    Total Energy =                       -151.5298737582182582

     Irrep 1: 3
     Irrep 2: 1
     Irrep 3: 0
     Irrep 4: 2

      Irrep 1: 6
      Irrep 2: 1
      Irrep 3: 0
      Irrep 4: 2

    Irrep   Nso     Nmo     Nalpha   Nbeta   Ndocc  Nsocc

  @UKS Final Energy:  -151.52987375821823
    Total Energy =                       -151.5298737582182582

    Irrep   Nso     Nmo     Nalpha   Nbeta   Ndocc  Nsocc

  @UKS Final Energy:  -151.52987290545917
    Total Energy =                       -151.5298729054591718

    Irrep   Nso     Nmo     Nalpha   Nbeta   Ndocc  Nsocc

  @UKS Final Energy:  -151.52987369887580
    Total Energy =                       -151.5298736988758321

    Irrep   Nso     Nmo     Nalpha   Nbeta   Ndocc  Nsocc

  @UKS Final Energy:  -151.52986748632486
    Total Energy =                       -151.5298674863248607

    Irrep   Nso     Nmo     Nalpha   Nbeta   Ndocc  Nsocc

  @UKS Final Energy:  -151.52986717185158
    Total Energy =                       -151.5298671718516061

    Irrep   Nso     Nmo     Nalpha   Nbeta   Ndocc  Nsocc

  @UKS Final Energy:  -151.52987267494578
    Total Energy =                       -151.5298726749457785

    Irrep   Nso     Nmo     Nalpha   Nbeta   Ndocc  Nsocc

  @UKS Final Energy:  -151.52987255036871
    Total Energy =                       -151.5298725503687081

    Irrep   Nso     Nmo     Nalpha   Nbeta   Ndocc  Nsocc

  @UKS Final Energy:  -151.52987393890069
    Total Energy =                       -151.5298739389006926

    Irrep   Nso     Nmo     Nalpha   Nbeta   Ndocc  Nsocc

  @UKS Final Energy:  -151.52987241540833
    Total Energy =                       -151.5298724154083345
    Molecular point group: cs
  Charge       = 0
  Multiplicity = 1

    Irrep   Nso     Nmo     Nalpha   Nbeta   Ndocc  Nsocc

    Orbital Energies [Eh]
    ---------------------

    Alpha Occupied:

       1Ap   -19.205979     2Ap   -19.205515     3Ap    -1.109092
       4Ap    -0.899210     5Ap    -0.567137     6Ap    -0.421962
       1App   -0.391597     7Ap    -0.382042     2App   -0.249885

    Alpha Virtual:

       8Ap     0.011512     9Ap     0.032290    10Ap     0.144871
      11Ap     0.730422    12Ap     0.744957    13Ap     0.815205
       3App    0.846777    14Ap     0.921094    15Ap     0.949804
       4App    0.956488    16Ap     1.023986    17Ap     1.080643
      18Ap     1.434716     5App    1.447119    19Ap     1.448162
       6App    1.560221     7App    1.630084    20Ap     1.892478
      21Ap     1.926714    22Ap     2.233282     8App    2.344923
      23Ap     2.447777    24Ap     2.554019     9App    2.560422
      10App    2.688125    25Ap     2.907380    26Ap     2.974465
      27Ap     3.292152    28Ap     3.473126    29Ap     3.479603
      30Ap     3.812686

    Beta Occupied:

       1Ap   -19.205979     2Ap   -19.205515     3Ap    -1.109092
       4Ap    -0.899210     5Ap    -0.567137     6Ap    -0.421962
       1App   -0.391597     7Ap    -0.382042     2App   -0.249885

    Beta Virtual:

       8Ap     0.011512     9Ap     0.032290    10Ap     0.144871
      11Ap     0.730422    12Ap     0.744957    13Ap     0.815205
       3App    0.846777    14Ap     0.921094    15Ap     0.949804
       4App    0.956488    16Ap     1.023986    17Ap     1.080643
      18Ap     1.434716     5App    1.447119    19Ap     1.448162
       6App    1.560221     7App    1.630084    20Ap     1.892478
      21Ap     1.926714    22Ap     2.233282     8App    2.344923
      23Ap     2.447777    24Ap     2.554019     9App    2.560422
      10App    2.688125    25Ap     2.907380    26Ap     2.974465
      27Ap     3.292152    28Ap     3.473126    29Ap     3.479603
      30Ap     3.812686

    Final Occupation by Irrep:
             Ap   App
    DOCC [     7,    2 ]
    SOCC [     0,    0 ]

  @UKS Final Energy:  -151.52986749325029

   => Energetics <=

    Nuclear Repulsion Energy =             36.4667342157875538
    One-Electron Energy =                -280.7632891412259255
    Two-Electron Energy =                 107.2014251824199675
    DFT Exchange-Correlation Energy =     -14.4347377502318679
    Empirical Dispersion Energy =           0.0000000000000000
    VV10 Nonlocal Energy =                  0.0000000000000000
    Total Energy =                       -151.5298674932502934

  UHF NO Occupations:
  HONO-2 :    5 Ap 2.0000000
  HONO-1 :    6 Ap 2.0000000
  HONO-0 :    7 Ap 2.0000000
  LUNO+0 :    8 Ap 0.0000000
  LUNO+1 :    9 Ap 0.0000000
  LUNO+2 :   10 Ap 0.0000000
  LUNO+3 :   11 Ap 0.0000000

Computation Completed

Properties will be evaluated at   0.000000,   0.000000,   0.000000 [a0]

Properties computed using the SCF density matrix

  Nuclear Dipole Moment: [e a0]
     X:     0.0000      Y:     0.0000      Z:    -1.6555

  Electronic Dipole Moment: [e a0]
     X:     0.0000      Y:    -0.0001      Z:     0.3641

  Dipole Moment: [e a0]
     X:     0.0000      Y:    -0.0001      Z:    -1.2914     Total:     1.2914

  Dipole Moment: [D]
     X:     0.0000      Y:    -0.0004      Z:    -3.2824     Total:     3.2824

*** tstop() called on X1-ubuntu at Sun Sep  6 16:06:27 2020
Module time:
	user time   =      10.47 seconds =       0.17 minutes
	system time =       0.13 seconds =       0.00 minutes
	total time  =         11 seconds =       0.18 minutes
Total time:
	user time   =     278.17 seconds =       4.64 minutes
	system time =       3.08 seconds =       0.05 minutes
	total time  =        282 seconds =       4.70 minutes

*** tstart() called on X1-ubuntu
*** at Sun Sep  6 16:06:27 2020

         ------------------------------------------------------------
                                   SCF GRAD
                          Rob Parrish, Justin Turney,
                       Andy Simmonett, and Alex Sokolov
         ------------------------------------------------------------

  ==> Geometry <==

    Molecular point group: cs
    Full point group: Cs

    Geometry (in Angstrom), charge = 0, multiplicity = 1:

       Center              X                  Y                   Z               Mass
    ------------   -----------------  -----------------  -----------------  -----------------
         O            0.000000000000     0.731952472753     0.055502430010    15.994914619570
         H            0.000000000000     0.978560141308    -0.881459111233     1.007825032230
         O            0.000000000000    -0.731952472753     0.055800095263    15.994914619570
         H            0.000000000000    -0.978560141308    -0.884992734830     1.007825032230

           O
              BASIS           6-31G(D_P)           ec2d227169b1af6c6a69bc8715bab79dbd7bb644
              DF_BASIS_SCF    (6-31G(D_P) AUX)     b57462463db1b385e39e4428a46364991bcd7673
           H
              BASIS           6-31G(D_P)           902186d0f3205710946c2c15d2c68458d6f6cc2a
              DF_BASIS_SCF    (6-31G(D_P) AUX)     1164366b470d7a66fddaf681ef9d1c28421b3e4a
           O
              BASIS           6-31G(D_P)           ec2d227169b1af6c6a69bc8715bab79dbd7bb644
              DF_BASIS_SCF    (6-31G(D_P) AUX)     b57462463db1b385e39e4428a46364991bcd7673
           H
              BASIS           6-31G(D_P)           902186d0f3205710946c2c15d2c68458d6f6cc2a
              DF_BASIS_SCF    (6-31G(D_P) AUX)     1164366b470d7a66fddaf681ef9d1c28421b3e4a

  Nuclear repulsion =   36.466734215787554

  ==> Basis Set <==

  -AO BASIS SET INFORMATION:
    Name                   = 6-31G(D_P)
    Blend                  = 6-31G(D_P)
    Total number of shells = 18
    Number of primitives   = 40
    Number of AO           = 40
    Number of SO           = 40
    Maximum AM             = 2
    Spherical Harmonics    = FALSE

  -Contraction Scheme:
    Atom   Type   All Primitives // Shells:
   ------ ------ --------------------------
       1     O     10s 4p 1d // 3s 2p 1d
       2     H     4s 1p // 2s 1p
       3     O     10s 4p 1d // 3s 2p 1d
       4     H     4s 1p // 2s 1p

  ==> AO Basis Functions <==

    [ 6-31G(D_P) ]
    cartesian
    ****
    O   1
    S   6 1.00
                      5484.67170000           0.00183110
                       825.23495000           0.01395010
                       188.04696000           0.06844510
                        52.96450000           0.23271430
                        16.89757000           0.47019300
                         5.79963530           0.35852090
    S   3 1.00
                        15.53961600          -0.11077750
                         3.59993360          -0.14802630
                         1.01376180           1.13076700
    P   3 1.00
                        15.53961600           0.07087430
                         3.59993360           0.33975280
                         1.01376180           0.72715860
    S   1 1.00
                         0.27000580           1.00000000
    P   1 1.00
                         0.27000580           1.00000000
    D   1 1.00
                         0.80000000           1.00000000
    ****
    H   2
    S   3 1.00
                        18.73113700           0.03349460
                         2.82539370           0.23472695
                         0.64012170           0.81375733
    S   1 1.00
                         0.16127780           1.00000000
    P   1 1.00
                         1.10000000           1.00000000
    ****
    O   3
    S   6 1.00
                      5484.67170000           0.00183110
                       825.23495000           0.01395010
                       188.04696000           0.06844510
                        52.96450000           0.23271430
                        16.89757000           0.47019300
                         5.79963530           0.35852090
    S   3 1.00
                        15.53961600          -0.11077750
                         3.59993360          -0.14802630
                         1.01376180           1.13076700
    P   3 1.00
                        15.53961600           0.07087430
                         3.59993360           0.33975280
                         1.01376180           0.72715860
    S   1 1.00
                         0.27000580           1.00000000
    P   1 1.00
                         0.27000580           1.00000000
    D   1 1.00
                         0.80000000           1.00000000
    ****
    H   4
    S   3 1.00
                        18.73113700           0.03349460
                         2.82539370           0.23472695
                         0.64012170           0.81375733
    S   1 1.00
                         0.16127780           1.00000000
    P   1 1.00
                         1.10000000           1.00000000
    ****

  ==> DirectJKGrad: Integral-Direct SCF Gradients <==

    Gradient:                    1
    J tasked:                  Yes
    K tasked:                  Yes
    wK tasked:                  No
    Integrals threads:           1
    Schwarz Cutoff:          0E+00

  ==> DFT Potential <==

   => Composite Functional: B3LYP <=

    B3LYP Hyb-GGA Exchange-Correlation Functional

    P. J. Stephens, F. J. Devlin, C. F. Chabalowski, and M. J. Frisch, J. Phys. Chem. 98, 11623 (1994)

    Deriv               =              1
    GGA                 =           TRUE
    Meta                =          FALSE

    Exchange Hybrid     =           TRUE
    MP2 Hybrid          =          FALSE

   => Exchange Functionals <=

    0.0800   Slater exchange
    0.7200         Becke 88

   => Exact (HF) Exchange <=

    0.2000               HF

   => Correlation Functionals <=

    0.1900   Vosko, Wilk & Nusair (VWN5_RPA)
    0.8100   Lee, Yang & Parr

   => XC_HYB_GGA_XC_B3LYP Functional <=

    B3LYP
    P. J. Stephens, F. J. Devlin, C. F. Chabalowski, and M. J. Frisch, J. Phys. Chem. 98, 11623 (1994)
    GGA   =           TRUE
    Meta  =          FALSE
    LRC   =          FALSE
    Alpha =   1.000000E+00
    Omega =   0.000000E+00

    > Parameters <

   => Molecular Quadrature <=

    Radial Scheme          =       TREUTLER
    Pruning Scheme         =           FLAT
    Nuclear Scheme         =       TREUTLER

    BS radius alpha        =              1
    Pruning alpha          =              1
    Radial Points          =             75
    Spherical Points       =            302
    Total Points           =          87102
    Total Blocks           =            708
    Max Points             =            249
    Max Functions          =             40

  -Nuclear Gradient:
     Atom            X                  Y                   Z
    ------   -----------------  -----------------  -----------------
       1        0.000000000000    -8.270643512060    -2.589457171863
       2        0.000000000000    -1.196965720798     2.590727615440
       3        0.000000000000     8.278795014359    -2.575610396856
       4        0.000000000000     1.188814218498     2.574339953280

  -Core Hamiltonian Gradient:
     Atom            X                  Y                   Z
    ------   -----------------  -----------------  -----------------
       1        0.000000000000    15.324822608630     6.397725758100
       2        0.000000000000     2.693466122476    -6.402713951726
       3        0.000000000000   -15.343923358274     6.377670184221
       4        0.000000000000    -2.674365372832    -6.372681990595

  -Overlap Gradient:
     Atom            X                  Y                   Z
    ------   -----------------  -----------------  -----------------
       1       -0.000000000000    -0.083681117161    -0.250119155882
       2       -0.000000000000    -0.071022384075     0.250210032446
       3       -0.000000000000     0.084380144961    -0.248993957649
       4       -0.000000000000     0.070323356275     0.248903081085

  -Coulomb Gradient:
     Atom            X                  Y                   Z
    ------   -----------------  -----------------  -----------------
       1        0.000000000000    -6.999283417408    -3.905102569196
       2        0.000000000000    -1.533320834679     3.908796126174
       3        0.000000000000     7.011347374115    -3.894751718984
       4        0.000000000000     1.521256877972     3.891058162007

  -Exchange Gradient:
     Atom            X                  Y                   Z
    ------   -----------------  -----------------  -----------------
       1       -0.000000000000     0.009265220693     0.088307544398
       2       -0.000000000000     0.028022405059    -0.088356936719
       3       -0.000000000000    -0.009545627786     0.087943389182
       4       -0.000000000000    -0.027741997966    -0.087893996861

  -XC Gradient:
     Atom            X                  Y                   Z
    ------   -----------------  -----------------  -----------------
       1       -0.000000000000     0.019664108760     0.256819800549
       2        0.000000000000     0.079464497987    -0.256954860750
       3        0.000000000000    -0.020489725825     0.255609822940
       4       -0.000000000000    -0.078638971886    -0.255458864367

  -Total Gradient:
     Atom            X                  Y                   Z
    ------   -----------------  -----------------  -----------------
       1        0.000000000000     0.000143891455    -0.001825793894
       2        0.000000000000    -0.000355914029     0.001708024864
       3        0.000000000000     0.000563821550     0.001867322853
       4        0.000000000000    -0.000351889938    -0.001733655451

*** tstop() called on X1-ubuntu at Sun Sep  6 16:06:28 2020
Module time:
	user time   =       1.34 seconds =       0.02 minutes
	system time =       0.01 seconds =       0.00 minutes
	total time  =          1 seconds =       0.02 minutes
Total time:
	user time   =     279.52 seconds =       4.66 minutes
	system time =       3.09 seconds =       0.05 minutes
	total time  =        283 seconds =       4.72 minutes

         ----------------------------------------------------------
                                   FINDIF
                     R. A. King and Jonathon Misiewicz
         ---------------------------------------------------------

  Computing second-derivative from gradients using projected,
  symmetry-adapted, cartesian coordinates.

  10 gradients passed in, including the reference geometry.
  Generating complete list of displacements from unique ones.

    The atom map:
     1 :    1   3   3   1
     2 :    2   4   4   2
     3 :    3   1   1   3
     4 :    4   2   2   4

    Symmetric gradients

[[ 2.2389290566e-20 -7.3128972637e-04  1.5679916675e-04]
 [-9.3111738221e-22  3.0412601663e-05 -1.4885480753e-04]
 [-2.2389290565e-20  7.3128972637e-04  1.5679916675e-04]
 [ 9.3111738179e-22 -3.0412601663e-05 -1.4885480753e-04]]

[[-9.2028449084e-21  3.0058772583e-04 -9.2958207202e-05]
 [ 8.3972787220e-22 -2.7427593748e-05  1.0092564942e-04]
 [ 9.2028449069e-21 -3.0058772583e-04 -9.2958207202e-05]
 [-8.3972787242e-22  2.7427593748e-05  1.0092564942e-04]]

  Vibration                       1                   8                   9
  Freq [cm^-1]                617.1749i            944.3175           1337.9641
  Irrep                           A2                  A1                  A1
  Reduced mass [u]              1.1134             14.8607              1.0107
  Force const [mDyne/A]        -0.2499              7.8077              1.0660

  Vibration                       10                  11                  12
  Freq [cm^-1]                1456.2449           3737.0139           3780.9773
  Irrep                           B2                  B2                  A1
  Reduced mass [u]              1.1939              1.0698              1.0693
  Force const [mDyne/A]         1.4917              8.8024              9.0065

  ==> Thermochemistry Components <==

  Entropy, S
    Electronic S            0.000 [cal/(mol K)]        0.000 [J/(mol K)]       0.00000000 [mEh/K] (multiplicity = 1)
    Translational S        36.503 [cal/(mol K)]      152.728 [J/(mol K)]       0.05817083 [mEh/K] (mol. weight = 34.0055 [u], P = 101325.00 [Pa])
    Rotational S           16.672 [cal/(mol K)]       69.755 [J/(mol K)]       0.02656838 [mEh/K] (symmetry no. = 2)
    Vibrational S           0.154 [cal/(mol K)]        0.646 [J/(mol K)]       0.00024616 [mEh/K]
  Total S                  53.329 [cal/(mol K)]      223.129 [J/(mol K)]       0.08498537 [mEh/K]
  Correction S              0.000 [cal/(mol K)]        0.000 [J/(mol K)]       0.00000000 [mEh/K]

  Constant volume heat capacity, Cv
    Electronic Cv           0.000 [cal/(mol K)]        0.000 [J/(mol K)]       0.00000000 [mEh/K]
    Translational Cv        2.981 [cal/(mol K)]       12.472 [J/(mol K)]       0.00475022 [mEh/K]
    Rotational Cv           2.981 [cal/(mol K)]       12.472 [J/(mol K)]       0.00475022 [mEh/K]
    Vibrational Cv          0.660 [cal/(mol K)]        2.761 [J/(mol K)]       0.00105177 [mEh/K]
  Total Cv                  6.622 [cal/(mol K)]       27.705 [J/(mol K)]       0.01055221 [mEh/K]
  Correction Cv             0.000 [cal/(mol K)]        0.000 [J/(mol K)]       0.00000000 [mEh/K]

  Constant pressure heat capacity, Cp
    Electronic Cp           0.000 [cal/(mol K)]        0.000 [J/(mol K)]       0.00000000 [mEh/K]
    Translational Cp        4.968 [cal/(mol K)]       20.786 [J/(mol K)]       0.00791703 [mEh/K]
    Rotational Cp           2.981 [cal/(mol K)]       12.472 [J/(mol K)]       0.00475022 [mEh/K]
    Vibrational Cp          0.660 [cal/(mol K)]        2.761 [J/(mol K)]       0.00105177 [mEh/K]
  Total Cp                  8.609 [cal/(mol K)]       36.019 [J/(mol K)]       0.01371902 [mEh/K]
  Correction Cp             0.000 [cal/(mol K)]        0.000 [J/(mol K)]       0.00000000 [mEh/K]

  ==> Thermochemistry Energy Analysis <==

  Raw electronic energy, E0
  Total E0, Electronic energy at well bottom at 0 [K]                 -151.52987376 [Eh]

  Zero-point energy, ZPE_vib = Sum_i nu_i / 2
    Electronic ZPE          0.000 [kcal/mol]        0.000 [kJ/mol]       0.00000000 [Eh]
    Translational ZPE       0.000 [kcal/mol]        0.000 [kJ/mol]       0.00000000 [Eh]
    Rotational ZPE          0.000 [kcal/mol]        0.000 [kJ/mol]       0.00000000 [Eh]
    Vibrational ZPE        16.092 [kcal/mol]       67.329 [kJ/mol]       0.02564423 [Eh]        5628.259 [cm^-1]
  Correction ZPE           16.092 [kcal/mol]       67.329 [kJ/mol]       0.02564423 [Eh]        5628.259 [cm^-1]
  Total ZPE, Electronic energy at 0 [K]                               -151.50422952 [Eh]

  Thermal Energy, E (includes ZPE)
    Electronic E            0.000 [kcal/mol]        0.000 [kJ/mol]       0.00000000 [Eh]
    Translational E         0.889 [kcal/mol]        3.718 [kJ/mol]       0.00141628 [Eh]
    Rotational E            0.889 [kcal/mol]        3.718 [kJ/mol]       0.00141628 [Eh]
    Vibrational E          16.130 [kcal/mol]       67.489 [kJ/mol]       0.02570534 [Eh]
  Correction E             17.908 [kcal/mol]       74.926 [kJ/mol]       0.02853790 [Eh]
  Total E, Electronic energy at  298.15 [K]                           -151.50133586 [Eh]

  Enthalpy, H_trans = E_trans + k_B * T
    Electronic H            0.000 [kcal/mol]        0.000 [kJ/mol]       0.00000000 [Eh]
    Translational H         1.481 [kcal/mol]        6.197 [kJ/mol]       0.00236046 [Eh]
    Rotational H            0.889 [kcal/mol]        3.718 [kJ/mol]       0.00141628 [Eh]
    Vibrational H          16.130 [kcal/mol]       67.489 [kJ/mol]       0.02570534 [Eh]
  Correction H             18.500 [kcal/mol]       77.405 [kJ/mol]       0.02948208 [Eh]
  Total H, Enthalpy at  298.15 [K]                                    -151.50039168 [Eh]

  Gibbs free energy, G = H - T * S
    Electronic G            0.000 [kcal/mol]        0.000 [kJ/mol]       0.00000000 [Eh]
    Translational G        -9.402 [kcal/mol]      -39.338 [kJ/mol]      -0.01498317 [Eh]
    Rotational G           -4.082 [kcal/mol]      -17.079 [kJ/mol]      -0.00650508 [Eh]
    Vibrational G          16.084 [kcal/mol]       67.297 [kJ/mol]       0.02563195 [Eh]
  Correction G              2.600 [kcal/mol]       10.879 [kJ/mol]       0.00414369 [Eh]
  Total G, Free enthalpy at  298.15 [K]                               -151.52573006 [Eh]

*** Psi4 exiting successfully. Buy a developer a beer!
