                               Psi4 1.3.2 release

  ==> Input File <==

--------------------------------------------------------------------------
memory 1024 mb

molecule mol {
0 1
O                 -1.02870815   -0.00797448    0.00000000
H                 -0.06870815   -0.00797448    0.00000000
H                 -1.34916274    0.89696135    0.00000000
}
set {
  scf_type DIRECT
  basis 6-31G(d_p)
  reference uks
  geom_maxiter 50
  print 3
}

optimize('b3lyp')
scf_e, wfn=frequencies('b3lyp', return_wfn=True, dertype=1)
wfn.hessian().print_out()

--------------------------------------------------------------------------

    Molecular point group: c2v
  Charge       = 0
  Multiplicity = 1
  @UKS Final Energy:   -76.41893013855720
    Total Energy =                        -76.4189301385572151
    Molecular point group: c2v
  @UKS Final Energy:   -76.41971735938120
    Total Energy =                        -76.4197173593811954
  @UKS Final Energy:   -76.41973726763452
    Total Energy =                        -76.4197372676345168
  **** Optimization is complete! (in 3 steps) ****
    Final optimized geometry and variables:
  @UKS Final Energy:   -76.41973726763449
    Total Energy =                        -76.4197372676344884
  @UKS Final Energy:   -76.41973726763450
    Total Energy =                        -76.4197372676344884
  @UKS Final Energy:   -76.41973445053492
    Total Energy =                        -76.4197344505349321
  @UKS Final Energy:   -76.41973369778856
    Total Energy =                        -76.4197336977885584
  @UKS Final Energy:   -76.41973165764075
    Total Energy =                        -76.4197316576407530
  @UKS Final Energy:   -76.41973297252305
    Total Energy =                        -76.4197329725230503
    Molecular point group: cs
  Charge       = 0
  Multiplicity = 1

    Orbital Energies [Eh]
    ---------------------

    Alpha Occupied:

       1Ap   -19.137992     2Ap    -0.997367     3Ap    -0.515011
       4Ap    -0.371043     1App   -0.291972

    Alpha Virtual:

       5Ap     0.065368     6Ap     0.151264     7Ap     0.756842
       8Ap     0.805624     2App    0.891348     9Ap     0.893554
      10Ap     1.015575    11Ap     1.175422     3App    1.529534
      12Ap     1.537614     4App    1.643617    13Ap     2.238776
      14Ap     2.268352    15Ap     2.450326     5App    2.640862
       6App    2.667137    16Ap     3.028026    17Ap     3.307354
      18Ap     3.531748    19Ap     3.692949

    Beta Occupied:

       1Ap   -19.137992     2Ap    -0.997367     3Ap    -0.515011
       4Ap    -0.371043     1App   -0.291972

    Beta Virtual:

       5Ap     0.065368     6Ap     0.151264     7Ap     0.756842
       8Ap     0.805624     2App    0.891348     9Ap     0.893554
      10Ap     1.015575    11Ap     1.175422     3App    1.529534
      12Ap     1.537614     4App    1.643617    13Ap     2.238776
      14Ap     2.268352    15Ap     2.450326     5App    2.640862
       6App    2.667137    16Ap     3.028026    17Ap     3.307354
      18Ap     3.531748    19Ap     3.692949

    Final Occupation by Irrep:
             Ap   App
    DOCC [     4,    1 ]
    SOCC [     0,    0 ]

  @UKS Final Energy:   -76.41973001963729

   => Energetics <=

    Nuclear Repulsion Energy =              9.1204583433293251
    One-Electron Energy =                -123.0252484254423138
    Two-Electron Energy =                  45.0466155764196046
    DFT Exchange-Correlation Energy =      -7.5615555139438992
    Empirical Dispersion Energy =           0.0000000000000000
    VV10 Nonlocal Energy =                  0.0000000000000000
    Total Energy =                        -76.4197300196372709

  UHF NO Occupations:
  HONO-2 :    1App 2.0000000
  HONO-1 :    3 Ap 2.0000000
  HONO-0 :    4 Ap 2.0000000
  LUNO+0 :    5 Ap 0.0000000
  LUNO+1 :    2App 0.0000000
  LUNO+2 :    6 Ap 0.0000000
  LUNO+3 :    7 Ap 0.0000000

Computation Completed

Properties will be evaluated at   0.000000,   0.000000,   0.000000 [a0]

Properties computed using the SCF density matrix

  Nuclear Dipole Moment: [e a0]
     X:     0.0026      Y:     0.0000      Z:     0.9921

  Electronic Dipole Moment: [e a0]
     X:    -0.0019      Y:     0.0000      Z:    -0.1883

  Dipole Moment: [e a0]
     X:     0.0007      Y:     0.0000      Z:     0.8038     Total:     0.8038

  Dipole Moment: [D]
     X:     0.0018      Y:     0.0000      Z:     2.0430     Total:     2.0430

*** tstop() called on X1-ubuntu at Sun Sep  6 15:59:44 2020
Module time:
	user time   =       4.10 seconds =       0.07 minutes
	system time =       0.07 seconds =       0.00 minutes
	total time  =          4 seconds =       0.07 minutes
Total time:
	user time   =      44.41 seconds =       0.74 minutes
	system time =       0.69 seconds =       0.01 minutes
	total time  =         45 seconds =       0.75 minutes

*** tstart() called on X1-ubuntu
*** at Sun Sep  6 15:59:44 2020

         ------------------------------------------------------------
                                   SCF GRAD
                          Rob Parrish, Justin Turney,
                       Andy Simmonett, and Alex Sokolov
         ------------------------------------------------------------

  ==> Geometry <==

    Molecular point group: cs
    Full point group: Cs

    Geometry (in Angstrom), charge = 0, multiplicity = 1:

       Center              X                  Y                   Z               Mass
    ------------   -----------------  -----------------  -----------------  -----------------
         O           -0.000177924897     0.000000000000    -0.066702592465    15.994914619570
         H            0.760634667558     0.000000000000     0.530417654880     1.007825032230
         H           -0.757810870319     0.000000000000     0.528200892251     1.007825032230

           O
              BASIS           6-31G(D_P)           ec2d227169b1af6c6a69bc8715bab79dbd7bb644
              DF_BASIS_SCF    (6-31G(D_P) AUX)     b57462463db1b385e39e4428a46364991bcd7673
           H
              BASIS           6-31G(D_P)           902186d0f3205710946c2c15d2c68458d6f6cc2a
              DF_BASIS_SCF    (6-31G(D_P) AUX)     1164366b470d7a66fddaf681ef9d1c28421b3e4a
           H
              BASIS           6-31G(D_P)           902186d0f3205710946c2c15d2c68458d6f6cc2a
              DF_BASIS_SCF    (6-31G(D_P) AUX)     1164366b470d7a66fddaf681ef9d1c28421b3e4a

  Nuclear repulsion =    9.120458343329325

  ==> Basis Set <==

  -AO BASIS SET INFORMATION:
    Name                   = 6-31G(D_P)
    Blend                  = 6-31G(D_P)
    Total number of shells = 12
    Number of primitives   = 25
    Number of AO           = 25
    Number of SO           = 25
    Maximum AM             = 2
    Spherical Harmonics    = FALSE

  -Contraction Scheme:
    Atom   Type   All Primitives // Shells:
   ------ ------ --------------------------
       1     O     10s 4p 1d // 3s 2p 1d
       2     H     4s 1p // 2s 1p
       3     H     4s 1p // 2s 1p

  ==> AO Basis Functions <==

    [ 6-31G(D_P) ]
    cartesian
    ****
    O   1
    S   6 1.00
                      5484.67170000           0.00183110
                       825.23495000           0.01395010
                       188.04696000           0.06844510
                        52.96450000           0.23271430
                        16.89757000           0.47019300
                         5.79963530           0.35852090
    S   3 1.00
                        15.53961600          -0.11077750
                         3.59993360          -0.14802630
                         1.01376180           1.13076700
    P   3 1.00
                        15.53961600           0.07087430
                         3.59993360           0.33975280
                         1.01376180           0.72715860
    S   1 1.00
                         0.27000580           1.00000000
    P   1 1.00
                         0.27000580           1.00000000
    D   1 1.00
                         0.80000000           1.00000000
    ****
    H   2
    S   3 1.00
                        18.73113700           0.03349460
                         2.82539370           0.23472695
                         0.64012170           0.81375733
    S   1 1.00
                         0.16127780           1.00000000
    P   1 1.00
                         1.10000000           1.00000000
    ****
    H   3
    S   3 1.00
                        18.73113700           0.03349460
                         2.82539370           0.23472695
                         0.64012170           0.81375733
    S   1 1.00
                         0.16127780           1.00000000
    P   1 1.00
                         1.10000000           1.00000000
    ****

  ==> DirectJKGrad: Integral-Direct SCF Gradients <==

    Gradient:                    1
    J tasked:                  Yes
    K tasked:                  Yes
    wK tasked:                  No
    Integrals threads:           1
    Schwarz Cutoff:          0E+00

  ==> DFT Potential <==

   => Composite Functional: B3LYP <=

    B3LYP Hyb-GGA Exchange-Correlation Functional

    P. J. Stephens, F. J. Devlin, C. F. Chabalowski, and M. J. Frisch, J. Phys. Chem. 98, 11623 (1994)

    Deriv               =              1
    GGA                 =           TRUE
    Meta                =          FALSE

    Exchange Hybrid     =           TRUE
    MP2 Hybrid          =          FALSE

   => Exchange Functionals <=

    0.0800   Slater exchange
    0.7200         Becke 88

   => Exact (HF) Exchange <=

    0.2000               HF

   => Correlation Functionals <=

    0.1900   Vosko, Wilk & Nusair (VWN5_RPA)
    0.8100   Lee, Yang & Parr

   => XC_HYB_GGA_XC_B3LYP Functional <=

    B3LYP
    P. J. Stephens, F. J. Devlin, C. F. Chabalowski, and M. J. Frisch, J. Phys. Chem. 98, 11623 (1994)
    GGA   =           TRUE
    Meta  =          FALSE
    LRC   =          FALSE
    Alpha =   1.000000E+00
    Omega =   0.000000E+00

    > Parameters <

   => Molecular Quadrature <=

    Radial Scheme          =       TREUTLER
    Pruning Scheme         =           FLAT
    Nuclear Scheme         =       TREUTLER

    BS radius alpha        =              1
    Pruning alpha          =              1
    Radial Points          =             75
    Spherical Points       =            302
    Total Points           =          65565
    Total Blocks           =            558
    Max Points             =            256
    Max Functions          =             25

  -Nuclear Gradient:
     Atom            X                  Y                   Z
    ------   -----------------  -----------------  -----------------
       1       -0.014828517463     0.000000000000     2.969641525357
       2       -2.005456073765     0.000000000000    -1.478829686713
       3        2.020284591228     0.000000000000    -1.490811838643

  -Core Hamiltonian Gradient:
     Atom            X                  Y                   Z
    ------   -----------------  -----------------  -----------------
       1        0.021544122160     0.000000000000    -6.945617487988
       2        4.629078591144     0.000000000000     3.462658429815
       3       -4.650622713305     0.000000000000     3.482959058173

  -Overlap Gradient:
     Atom            X                  Y                   Z
    ------   -----------------  -----------------  -----------------
       1       -0.000845520905    -0.000000000000     0.319526624532
       2       -0.189215852258    -0.000000000000    -0.159347955020
       3        0.190061373163    -0.000000000000    -0.160178669512

  -Coulomb Gradient:
     Atom            X                  Y                   Z
    ------   -----------------  -----------------  -----------------
       1       -0.010398076138     0.000000000000     4.099685266839
       2       -2.724356031648     0.000000000000    -2.044177823482
       3        2.734754107785     0.000000000000    -2.055507443357

  -Exchange Gradient:
     Atom            X                  Y                   Z
    ------   -----------------  -----------------  -----------------
       1        0.000329817137    -0.000000000000    -0.113894758588
       2        0.074732227214    -0.000000000000     0.056783361662
       3       -0.075062044350    -0.000000000000     0.057111396926

  -XC Gradient:
     Atom            X                  Y                   Z
    ------   -----------------  -----------------  -----------------
       1        0.001077549696     0.000000000000    -0.329242234562
       2        0.216676347044    -0.000000000000     0.164077530395
       3       -0.217756490359     0.000000000000     0.165143595519

  -Total Gradient:
     Atom            X                  Y                   Z
    ------   -----------------  -----------------  -----------------
       1       -0.003120625512     0.000000000000     0.000098935589
       2        0.001459207731     0.000000000000     0.001163856656
       3        0.001658824162     0.000000000000    -0.001283900893

*** tstop() called on X1-ubuntu at Sun Sep  6 15:59:45 2020
Module time:
	user time   =       0.46 seconds =       0.01 minutes
	system time =       0.00 seconds =       0.00 minutes
	total time  =          1 seconds =       0.02 minutes
Total time:
	user time   =      44.88 seconds =       0.75 minutes
	system time =       0.69 seconds =       0.01 minutes
	total time  =         46 seconds =       0.77 minutes

         ----------------------------------------------------------
                                   FINDIF
                     R. A. King and Jonathon Misiewicz
         ---------------------------------------------------------

  Computing second-derivative from gradients using projected,
  symmetry-adapted, cartesian coordinates.

  6 gradients passed in, including the reference geometry.
  Generating complete list of displacements from unique ones.

    The atom map:
     1 :    1   1   1   1
     2 :    2   3   2   3
     3 :    3   2   3   2

    Symmetric gradients

[[ 0.0000000000e+00  1.1832913578e-30 -1.6239724390e-03]
 [ 6.4957646195e-04  1.9887543373e-20  8.0156793782e-04]
 [-6.4957646195e-04 -1.9887543373e-20  8.0156793782e-04]]

[[-7.8886090522e-31  7.8886090522e-31  1.7931519355e-03]
 [-8.3700918403e-04 -2.5626015452e-20 -9.0737517454e-04]
 [ 8.3700918403e-04  2.5626015452e-20 -9.0737517454e-04]]

[[-7.8886090522e-31  0.0000000000e+00  1.4933966109e-03]
 [-1.5018784270e-03 -4.5981765209e-20 -7.5715330927e-04]
 [ 1.5018784270e-03  4.5981765209e-20 -7.5715330927e-04]]

[[ 0.0000000000e+00 -1.5777218104e-30 -1.3090870257e-03]
 [ 1.3106502409e-03  4.0127090556e-20  6.4377624878e-04]
 [-1.3106502409e-03 -4.0127090556e-20  6.4377624878e-04]]
Characters for irrep 2
   1.0  -1.0   1.0  -1.0
    Operation 2 takes plus displacements of irrep B1 to minus ones.
    All mass-weighted gradients

[[ 0.0000000000e+00  2.9586986228e-31 -4.0605764480e-04]
 [ 6.4704980234e-04  1.9810186733e-20  7.9845007649e-04]
 [-6.4704980234e-04 -1.9810186733e-20  7.9845007649e-04]]

[[-1.9724657485e-31  1.9724657485e-31  4.4835924195e-04]
 [-8.3375346677e-04 -2.5526337859e-20 -9.0384575446e-04]
 [ 8.3375346677e-04  2.5526337859e-20 -9.0384575446e-04]]

[[-1.9724657485e-31  0.0000000000e+00  3.7340849882e-04]
 [-1.4960365658e-03 -4.5802909792e-20 -7.5420820766e-04]
 [ 1.4960365658e-03  4.5802909791e-20 -7.5420820766e-04]]

[[ 0.0000000000e+00 -3.9449314971e-31 -3.2732377823e-04]
 [ 1.3055522005e-03  3.9971008086e-20  6.4127215027e-04]
 [-1.3055522005e-03 -3.9971008086e-20  6.4127215027e-04]]

[[-7.8028038862e-04  0.0000000000e+00  2.4737828904e-05]
 [ 1.4535318464e-03  0.0000000000e+00  1.1593295994e-03]
 [ 1.6523718284e-03  0.0000000000e+00 -1.2789068999e-03]]

[[ 7.8028038862e-04  9.5556788036e-20  2.4737828904e-05]
 [-1.6523718284e-03 -2.0235718707e-19 -1.2789068999e-03]
 [-1.4535318464e-03 -1.7800631232e-19  1.1593295994e-03]]
Gradients in B-matrix coordinates
 disp 0:   -0.0011999599   0.0009150666
 disp 1:    0.0013545754  -0.0011791055
 disp 2:    0.0011300751  -0.0021157152
 disp 3:   -0.0009641447   0.0018463296

    Force Constants for irrep A1 in mass-weighted, symmetry-adapted cartesian coordinates.

[[ 0.2554535256 -0.2094195932]
 [-0.2094195932  0.3962044829]]

    Normal coordinates (non-mass-weighted) for irrep A1:

  Vibration                       7                   8                   9
  Freq [cm^-1]                1664.9211           3801.0321           3914.2561
  Irrep                           A1                  A1                  B1
  Reduced mass [u]              1.0827              1.0452              1.0811
  Force const [mDyne/A]         1.7682              8.8969              9.7591

  ==> Thermochemistry Components <==

  Entropy, S
    Electronic S            0.000 [cal/(mol K)]        0.000 [J/(mol K)]       0.00000000 [mEh/K] (multiplicity = 1)
    Translational S        34.608 [cal/(mol K)]      144.801 [J/(mol K)]       0.05515177 [mEh/K] (mol. weight = 18.0106 [u], P = 101325.00 [Pa])
    Rotational S           10.502 [cal/(mol K)]       43.939 [J/(mol K)]       0.01673541 [mEh/K] (symmetry no. = 2)
    Vibrational S           0.006 [cal/(mol K)]        0.024 [J/(mol K)]       0.00000928 [mEh/K]
  Total S                  45.116 [cal/(mol K)]      188.764 [J/(mol K)]       0.07189646 [mEh/K]
  Correction S              0.000 [cal/(mol K)]        0.000 [J/(mol K)]       0.00000000 [mEh/K]

  Constant volume heat capacity, Cv
    Electronic Cv           0.000 [cal/(mol K)]        0.000 [J/(mol K)]       0.00000000 [mEh/K]
    Translational Cv        2.981 [cal/(mol K)]       12.472 [J/(mol K)]       0.00475022 [mEh/K]
    Rotational Cv           2.981 [cal/(mol K)]       12.472 [J/(mol K)]       0.00475022 [mEh/K]
    Vibrational Cv          0.042 [cal/(mol K)]        0.174 [J/(mol K)]       0.00006632 [mEh/K]
  Total Cv                  6.003 [cal/(mol K)]       25.118 [J/(mol K)]       0.00956675 [mEh/K]
  Correction Cv             0.000 [cal/(mol K)]        0.000 [J/(mol K)]       0.00000000 [mEh/K]

  Constant pressure heat capacity, Cp
    Electronic Cp           0.000 [cal/(mol K)]        0.000 [J/(mol K)]       0.00000000 [mEh/K]
    Translational Cp        4.968 [cal/(mol K)]       20.786 [J/(mol K)]       0.00791703 [mEh/K]
    Rotational Cp           2.981 [cal/(mol K)]       12.472 [J/(mol K)]       0.00475022 [mEh/K]
    Vibrational Cp          0.042 [cal/(mol K)]        0.174 [J/(mol K)]       0.00006632 [mEh/K]
  Total Cp                  7.990 [cal/(mol K)]       33.432 [J/(mol K)]       0.01273356 [mEh/K]
  Correction Cp             0.000 [cal/(mol K)]        0.000 [J/(mol K)]       0.00000000 [mEh/K]

  ==> Thermochemistry Energy Analysis <==

  Raw electronic energy, E0
  Total E0, Electronic energy at well bottom at 0 [K]                  -76.41973727 [Eh]

  Zero-point energy, ZPE_vib = Sum_i nu_i / 2
    Electronic ZPE          0.000 [kcal/mol]        0.000 [kJ/mol]       0.00000000 [Eh]
    Translational ZPE       0.000 [kcal/mol]        0.000 [kJ/mol]       0.00000000 [Eh]
    Rotational ZPE          0.000 [kcal/mol]        0.000 [kJ/mol]       0.00000000 [Eh]
    Vibrational ZPE        13.410 [kcal/mol]       56.106 [kJ/mol]       0.02136969 [Eh]        4690.105 [cm^-1]
  Correction ZPE           13.410 [kcal/mol]       56.106 [kJ/mol]       0.02136969 [Eh]        4690.105 [cm^-1]
  Total ZPE, Electronic energy at 0 [K]                                -76.39836758 [Eh]

  Thermal Energy, E (includes ZPE)
    Electronic E            0.000 [kcal/mol]        0.000 [kJ/mol]       0.00000000 [Eh]
    Translational E         0.889 [kcal/mol]        3.718 [kJ/mol]       0.00141628 [Eh]
    Rotational E            0.889 [kcal/mol]        3.718 [kJ/mol]       0.00141628 [Eh]
    Vibrational E          13.411 [kcal/mol]       56.113 [kJ/mol]       0.02137215 [Eh]
  Correction E             15.189 [kcal/mol]       63.549 [kJ/mol]       0.02420470 [Eh]
  Total E, Electronic energy at  298.15 [K]                            -76.39553256 [Eh]

  Enthalpy, H_trans = E_trans + k_B * T
    Electronic H            0.000 [kcal/mol]        0.000 [kJ/mol]       0.00000000 [Eh]
    Translational H         1.481 [kcal/mol]        6.197 [kJ/mol]       0.00236046 [Eh]
    Rotational H            0.889 [kcal/mol]        3.718 [kJ/mol]       0.00141628 [Eh]
    Vibrational H          13.411 [kcal/mol]       56.113 [kJ/mol]       0.02137215 [Eh]
  Correction H             15.781 [kcal/mol]       66.028 [kJ/mol]       0.02514889 [Eh]
  Total H, Enthalpy at  298.15 [K]                                     -76.39458838 [Eh]

  Gibbs free energy, G = H - T * S
    Electronic G            0.000 [kcal/mol]        0.000 [kJ/mol]       0.00000000 [Eh]
    Translational G        -8.837 [kcal/mol]      -36.975 [kJ/mol]      -0.01408304 [Eh]
    Rotational G           -2.242 [kcal/mol]       -9.382 [kJ/mol]      -0.00357339 [Eh]
    Vibrational G          13.409 [kcal/mol]       56.105 [kJ/mol]       0.02136938 [Eh]
  Correction G              2.330 [kcal/mol]        9.748 [kJ/mol]       0.00371296 [Eh]
  Total G, Free enthalpy at  298.15 [K]                                -76.41602431 [Eh]

*** Psi4 exiting successfully. Buy a developer a beer!
