 Gaussian 09, Revision D.01,
 Gaussian 09:  ES64L-G09RevD.01 24-Apr-2013

 ----------------------------------------------------------------------
 #P guess=read b2plypd3/def2tzvp freq IOp(7/33=1) scf=(tight, direct) i
 ntegral=(grid=ultrafine, Acc2E=12) IOp(2/9=2000) scf=xqc
 ----------------------------------------------------------------------

 ---
 CH4
 ---
 Symbolic Z-matrix:
 Charge =  0 Multiplicity = 1

                         Standard orientation:
 ---------------------------------------------------------------------
 Center     Atomic      Atomic             Coordinates (Angstroms)
 Number     Number       Type             X           Y           Z
 ---------------------------------------------------------------------
      1          6           0        0.000000    0.000000    0.000000
      2          1           0       -0.627949    0.627949    0.627949
      3          1           0       -0.627949   -0.627949   -0.627949
      4          1           0        0.627949    0.627949   -0.627949
      5          1           0        0.627949   -0.627949    0.627949
 ---------------------------------------------------------------------

 SCF Done:  E(RB2PLYPD3) =  -40.4225848763     A.U. after    1 cycles
 E2(B2PLYPD3) =    -0.6085591083D-01 E(B2PLYPD3) =    -0.40483440787156D+02
 E2(B2PLYPD3) =    -0.6085591083D-01 E(B2PLYPD3) =    -0.40483440787156D+02

 The electronic state is 1-A1.
 Alpha  occ. eigenvalues --  -10.59283  -0.79955  -0.45793  -0.45793  -0.45793
 Alpha virt. eigenvalues --    0.08995   0.17106   0.17106   0.17106   0.24363
 Alpha virt. eigenvalues --    0.24363   0.24363   0.43730   0.54843   0.54843
 Alpha virt. eigenvalues --    0.54843   0.61062   0.67315   0.67315   1.00824

 Mulliken charges:
               1
     1  C   -0.464782
     2  H    0.116195
     3  H    0.116195
     4  H    0.116195
     5  H    0.116195
 Sum of Mulliken charges =   0.00000

 Dipole moment (field-independent basis, Debye):
    X=             -0.0000    Y=             -0.0000    Z=              0.0000  Tot=              0.0000
 Quadrupole moment (field-independent basis, Debye-Ang):
   XX=             -8.4628   YY=             -8.4628   ZZ=             -8.4628
   XY=             -0.0000   XZ=             -0.0000   YZ=              0.0000

  Exact polarizability:  14.924  -0.000  14.924  -0.000   0.000  14.924
 Approx polarizability:  15.281   0.000  15.281   0.000   0.000  15.281

                      1                      2                      3
                     T2                     T2                     T2
 Frequencies --   1354.8464              1354.8464              1354.8464
 Red. masses --      1.1797                 1.1797                 1.1797
 Frc consts  --      1.2759                 1.2759                 1.2759
 IR Inten    --     14.0960                14.0960                14.0960

                      4                      5                      6
                      E                      E                     A1
 Frequencies --   1573.8876              1573.8876              3054.0104
 Red. masses --      1.0078                 1.0078                 1.0078
 Frc consts  --      1.4709                 1.4709                 5.5383
 IR Inten    --      0.0000                 0.0000                 0.0000

                      7                      8                      9
                     T2                     T2                     T2
 Frequencies --   3167.0898              3167.0898              3167.0898
 Red. masses --      1.1010                 1.1010                 1.1010
 Frc consts  --      6.5068                 6.5068                 6.5068
 IR Inten    --     21.7700                21.7700                21.7700

 - Thermochemistry -
 -------------------
 Temperature   298.150 Kelvin.  Pressure   1.00000 Atm.
 Atom     1 has atomic number  6 and mass  12.00000

 Molecular mass:    16.03130 amu.
 Principal axes and moments of inertia in atomic units:
                           1         2         3
     Eigenvalues --    11.35329  11.35329  11.35329
           X            0.31623   0.94868   0.00000
           Y            0.00000  -0.00000   1.00000
           Z            0.94868  -0.31623   0.00000
 This molecule is a spherical top.
 Rotational symmetry number 12.
 Rotational temperatures (Kelvin)      7.62896     7.62896     7.62896
 Rotational constants (GHZ):         158.96200   158.96200   158.96200
 Zero-point vibrational energy     118236.5 (Joules/Mol)
                                   28.25919 (Kcal/Mol)
 Vibrational temperatures:   1949.32  1949.32  1949.32  2264.47  2264.47
          (Kelvin)           4394.03  4556.73  4556.73  4556.73

 Zero-point correction=                           0.045034 (Hartree/Particle)
 Thermal correction to Energy=                    0.047901
 Thermal correction to Enthalpy=                  0.048845
 Thermal correction to Gibbs Free Energy=         0.027725
 Sum of electronic and zero-point Energies=            -40.438407
 Sum of electronic and thermal Energies=               -40.435540
 Sum of electronic and thermal Enthalpies=             -40.434596
 Sum of electronic and thermal Free Energies=          -40.455716

                     E (Thermal)             CV                S
                      KCal/Mol        Cal/Mol-Kelvin    Cal/Mol-Kelvin
 Total                   30.058              6.447             44.450
 Electronic               0.000              0.000              0.000
 Translational            0.889              2.981             34.261
 Rotational               0.889              2.981             10.107
 Vibrational             28.281              0.486              0.082

 Optimization completed.
    -- Stationary point found.
 Normal termination of Gaussian 09 at Sat Nov 12 21:58:38 2022.
