 Gaussian 09, Revision D.01,
 Gaussian 09:  ES64L-G09RevD.01 24-Apr-2013

 ----------------------------------------------------------------------
 #P guess=read ub2plypd3/def2tzvp freq IOp(7/33=1) scf=(tight, direct)
 integral=(grid=ultrafine, Acc2E=12) IOp(2/9=2000) scf=xqc
 ----------------------------------------------------------------------

 ---
 CH3
 ---
 Symbolic Z-matrix:
 Charge =  0 Multiplicity = 2

                         Standard orientation:
 ---------------------------------------------------------------------
 Center     Atomic      Atomic             Coordinates (Angstroms)
 Number     Number       Type             X           Y           Z
 ---------------------------------------------------------------------
      1          6           0        0.000000    0.000000    0.000000
      2          1           0        0.000000    1.077024   -0.000000
      3          1           0       -0.932730   -0.538512    0.000000
      4          1           0        0.932730   -0.538512   -0.000000
 ---------------------------------------------------------------------

 SCF Done:  E(UB2PLYPD3) =  -39.7601573719     A.U. after    1 cycles
 E2(B2PLYPD3) =    -0.4883850060D-01 E(B2PLYPD3) =    -0.39808995872481D+02
 E2(B2PLYPD3) =    -0.4883850060D-01 E(B2PLYPD3) =    -0.39808995872481D+02

 The electronic state is 2-A2".
 Alpha  occ. eigenvalues --  -10.62178  -0.79625  -0.49016  -0.49016  -0.29615
 Alpha virt. eigenvalues --    0.10412   0.16835   0.16835   0.24920   0.24920
 Alpha virt. eigenvalues --    0.27536   0.27880   0.51486   0.56274   0.56274
 Alpha virt. eigenvalues --    0.68863   0.68863   0.92854   0.97241   0.97241

  Beta  occ. eigenvalues --  -10.60461  -0.73833  -0.47948  -0.47948
  Beta virt. eigenvalues --    0.00166   0.11310   0.17055   0.17055   0.25023
  Beta virt. eigenvalues --    0.25023   0.29943   0.34541   0.54060   0.56921
  Beta virt. eigenvalues --    0.56921   0.73351   0.73351   0.96676   0.97787

 Mulliken charges and spin densities:
               1          2
     1  C   -0.385926   1.153101
     2  H    0.128642  -0.051034
     3  H    0.128642  -0.051034
     4  H    0.128642  -0.051034
 Sum of Mulliken charges =   0.00000   1.00000

 Dipole moment (field-independent basis, Debye):
    X=              0.0000    Y=             -0.0000    Z=             -0.0000  Tot=              0.0000
 Quadrupole moment (field-independent basis, Debye-Ang):
   XX=             -7.2398   YY=             -7.2398   ZZ=             -9.0638
   XY=             -0.0000   XZ=             -0.0000   YZ=              0.0000

  Exact polarizability:  13.864  -0.000  13.864  -0.000  -0.000  11.376
 Approx polarizability:  13.788  -0.000  13.788  -0.000  -0.000  11.057

                      1                      2                      3
                     A2"                    E'                     E'
 Frequencies --    523.8716              1427.1749              1427.1759
 Red. masses --      1.2356                 1.1021                 1.1021
 Frc consts  --      0.1998                 1.3226                 1.3226
 IR Inten    --     84.7098                 2.6837                 2.6838

                      4                      5                      6
                     A1'                    E'                     E'
 Frequencies --   3142.0354              3323.2745              3323.2773
 Red. masses --      1.0078                 1.1183                 1.1183
 Frc consts  --      5.8622                 7.2770                 7.2770
 IR Inten    --      0.0000                 3.2994                 3.2989

 - Thermochemistry -
 -------------------
 Temperature   298.150 Kelvin.  Pressure   1.00000 Atm.
 Atom     1 has atomic number  6 and mass  12.00000

 Molecular mass:    15.02348 amu.
 Principal axes and moments of inertia in atomic units:
                           1         2         3
     Eigenvalues --     6.26217   6.26217  12.52434
           X            0.27735   0.96077   0.00000
           Y            0.96077  -0.27735   0.00000
           Z            0.00000   0.00000   1.00000
 This molecule is an oblate symmetric top.
 Rotational symmetry number  6.
 Rotational temperatures (Kelvin)     13.83128    13.83128     6.91564
 Rotational constants (GHZ):         288.19748   288.19748   144.09874
 Zero-point vibrational energy      78755.0 (Joules/Mol)
                                   18.82290 (Kcal/Mol)
 Warning -- explicit consideration of   1 degrees of freedom as
           vibrations may cause significant error
 Vibrational temperatures:    753.73  2053.38  2053.39  4520.68  4781.44
          (Kelvin)           4781.45

 Zero-point correction=                           0.029996 (Hartree/Particle)
 Thermal correction to Energy=                    0.033049
 Thermal correction to Enthalpy=                  0.033993
 Thermal correction to Gibbs Free Energy=         0.011910
 Sum of electronic and zero-point Energies=            -39.779000
 Sum of electronic and thermal Energies=               -39.775947
 Sum of electronic and thermal Enthalpies=             -39.775003
 Sum of electronic and thermal Free Energies=          -39.797086

                     E (Thermal)             CV                S
                      KCal/Mol        Cal/Mol-Kelvin    Cal/Mol-Kelvin
 Total                   20.739              7.352             46.478
 Electronic               0.000              0.000              1.377
 Translational            0.889              2.981             34.068
 Rotational               0.889              2.981             10.399
 Vibrational             18.961              1.390              0.633
 Vibration     1          0.879              1.197              0.601

 Optimization completed.
    -- Stationary point found.
 Normal termination of Gaussian 09 at Sat Nov 12 21:59:00 2022.
