 Gaussian 09, Revision D.01,
 Gaussian 09:  ES64L-G09RevD.01 24-Apr-2013

 ----------------------------------------------------------------------
 #P guess=read b2plypd3/def2tzvp freq IOp(7/33=1) scf=(tight, direct) i
 ntegral=(grid=ultrafine, Acc2E=12) IOp(2/9=2000) scf=xqc
 ----------------------------------------------------------------------

 ---------
 Aziridine
 ---------
 Symbolic Z-matrix:
 Charge =  0 Multiplicity = 1

                         Standard orientation:
 ---------------------------------------------------------------------
 Center     Atomic      Atomic             Coordinates (Angstroms)
 Number     Number       Type             X           Y           Z
 ---------------------------------------------------------------------
      1          6           0       -0.739222   -0.398893    0.023386
      2          7           0       -0.000002    0.857636   -0.172007
      3          6           0        0.739224   -0.398891    0.023386
      4          1           0       -1.275903   -0.745833   -0.848851
      5          1           0       -1.246067   -0.559679    0.966292
      6          1           0       -0.000001    1.394272    0.688536
      7          1           0        1.246068   -0.559676    0.966292
      8          1           0        1.275905   -0.745830   -0.848851
 ---------------------------------------------------------------------

 SCF Done:  E(RB2PLYPD3) =  -133.675978962     A.U. after    1 cycles
 E2(B2PLYPD3) =    -0.1754215907D+00 E(B2PLYPD3) =    -0.13385140055308D+03
 E2(B2PLYPD3) =    -0.1754215907D+00 E(B2PLYPD3) =    -0.13385140055308D+03

 The electronic state is 1-A.
 Alpha  occ. eigenvalues --  -14.83268 -10.63996 -10.63946  -1.08101  -0.75864
 Alpha  occ. eigenvalues --   -0.71038  -0.59666  -0.54188  -0.44170  -0.40200
 Alpha  occ. eigenvalues --   -0.39731  -0.31446
 Alpha virt. eigenvalues --    0.07889   0.10895   0.12220   0.13533   0.17354
 Alpha virt. eigenvalues --    0.18965   0.19640   0.22777   0.25414   0.30222
 Alpha virt. eigenvalues --    0.34007   0.34790   0.38023   0.39829   0.44014

 Mulliken charges:
               1
     1  C   -0.115180
     2  N   -0.396647
     3  C   -0.115181
     4  H    0.106265
     5  H    0.104217
     6  H    0.206043
     7  H    0.104218
     8  H    0.106265
 Sum of Mulliken charges =  -0.00000

 Dipole moment (field-independent basis, Debye):
    X=              0.0000    Y=             -0.9629    Z=              1.5109  Tot=              1.7916
 Quadrupole moment (field-independent basis, Debye-Ang):
   XX=            -18.6712   YY=            -20.6985   ZZ=            -18.4330
   XY=              0.0000   XZ=             -0.0000   YZ=              2.6577

  Exact polarizability:  33.808   0.000  29.893   0.000   0.795  28.095
 Approx polarizability:  36.526  -0.000  34.019   0.000   0.727  31.337

                      1                      2                      3
                      A                      A                      A
 Frequencies --    784.0658               858.5182               877.7499
 Red. masses --      1.1994                 8.4211                 2.7997
 Frc consts  --      0.4344                 3.6569                 1.2709
 IR Inten    --     26.6105                 0.0033                51.2776

                      4                      5                      6
                      A                      A                      A
 Frequencies --    923.5005              1015.0732              1123.8405
 Red. masses --      1.0536                 1.0491                 1.2829
 Frc consts  --      0.5294                 0.6369                 0.9547
 IR Inten    --     12.9436                 7.9782                 6.1136

                      7                      8                      9
                      A                      A                      A
 Frequencies --   1127.5263              1164.9153              1245.5558
 Red. masses --      1.3095                 1.1048                 2.5577
 Frc consts  --      0.9808                 0.8833                 2.3379
 IR Inten    --      2.4534                 3.1111                15.8161

                     10                     11                     12
                      A                      A                      A
 Frequencies --   1274.3658              1304.1373              1510.8772
 Red. masses --      1.3119                 1.4788                 1.0788
 Frc consts  --      1.2553                 1.4818                 1.4509
 IR Inten    --      9.3191                 5.4746                 0.0599

                     13                     14                     15
                      A                      A                      A
 Frequencies --   1538.2859              3136.4097              3141.6060
 Red. masses --      1.2391                 1.0472                 1.0574
 Frc consts  --      1.7275                 6.0692                 6.1491
 IR Inten    --      0.9731                29.1698                15.0998

                     16                     17                     18
                      A                      A                      A
 Frequencies --   3218.9907              3232.2746              3514.0779
 Red. masses --      1.1208                 1.1198                 1.0763
 Frc consts  --      6.8426                 6.8931                 7.8307
 IR Inten    --      0.4720                26.3275                 1.1951

 - Thermochemistry -
 -------------------
 Temperature   298.150 Kelvin.  Pressure   1.00000 Atm.
 Atom     1 has atomic number  6 and mass  12.00000

 Molecular mass:    43.04220 amu.
 Principal axes and moments of inertia in atomic units:
                           1         2         3
     Eigenvalues --    78.62239  84.47616 133.60216
           X            1.00000   0.00000  -0.00000
           Y           -0.00000   0.99672   0.08098
           Z            0.00000  -0.08098   0.99672
 This molecule is an asymmetric top.
 Rotational symmetry number  1.
 Rotational temperatures (Kelvin)      1.10164     1.02530     0.64830
 Rotational constants (GHZ):          22.95454    21.36391    13.50832
 Zero-point vibrational energy     185372.0 (Joules/Mol)
                                   44.30496 (Kcal/Mol)
 Vibrational temperatures:   1128.09  1235.21  1262.88  1328.71  1460.46
          (Kelvin)           1616.95  1622.26  1676.05  1792.07  1833.53
                             1876.36  2173.81  2213.25  4512.59  4520.06
                             4631.40  4650.52  5055.97

 Zero-point correction=                           0.070604 (Hartree/Particle)
 Thermal correction to Energy=                    0.073837
 Thermal correction to Enthalpy=                  0.074781
 Thermal correction to Gibbs Free Energy=         0.046443
 Sum of electronic and zero-point Energies=           -133.780796
 Sum of electronic and thermal Energies=              -133.777564
 Sum of electronic and thermal Enthalpies=            -133.776620
 Sum of electronic and thermal Free Energies=         -133.804958

                     E (Thermal)             CV                S
                      KCal/Mol        Cal/Mol-Kelvin    Cal/Mol-Kelvin
 Total                   46.333              9.927             59.642
 Electronic               0.000              0.000              0.000
 Translational            0.889              2.981             37.205
 Rotational               0.889              2.981             21.411
 Vibrational             44.556              3.966              1.026

 Optimization completed.
    -- Stationary point found.
 Normal termination of Gaussian 09 at Sat Nov 12 21:57:05 2022.
