User input:
--------------------------------------------------------------
$rem
XC_GRID 000075000434
JOBTYPE opt
EXCHANGE M08SO
BASIS gen
GUI=2
UNRESTRICTED TRUE
CORRELATION NONE
$end

$comment
c5h11o-2
$end

$molecule
read c5h11o-2MG3S.out
$end

$basis
H  0
S  3 1.00
3.386500000000E+01 2.549380000000E-02
5.094790000000E+00 1.903730000000E-01
1.158790000000E+00 8.521610000000E-01
S  1 1.00
3.258400000000E-01 1.000000000000E+00
S  1 1.00
1.027410000000E-01 1.000000000000E+00
S  1 1.00
3.600000000000E-02 1.000000000000E+00
P  1 1.00
1.500000000000E+00 1.000000000000E+00
P  1 1.00
3.750000000000E-01 1.000000000000E+00
****
C 0
S  6 1.00
4.563240000000E+03 1.966650000000E-03
6.820240000000E+02 1.523060000000E-02
1.549730000000E+02 7.612690000000E-02
4.445530000000E+01 2.608010000000E-01
1.302900000000E+01 6.164620000000E-01
1.827730000000E+00 2.210060000000E-01
S  3 1.00
2.096420000000E+01 1.146600000000E-01
4.803310000000E+00 9.199990000000E-01
1.459330000000E+00 -3.030680000000E-03
S  1 1.00
4.834560000000E-01 1.000000000000E+00
S  1 1.00
1.455850000000E-01 1.000000000000E+00
S  1 1.00
4.380000000000E-02 1.000000000000E+00
P  3 1.00
2.096420000000E+01 4.024870000000E-02
4.803310000000E+00 2.375940000000E-01
1.459330000000E+00 8.158540000000E-01
P  1 1.00
4.834560000000E-01 1.000000000000E+00
P  1 1.00
1.455850000000E-01 1.000000000000E+00
P  1 1.00
4.380000000000E-02 1.000000000000E+00
D  1 1.00
1.252000000000E+00 1.000000000000E+00
D  1 1.00
3.130000000000E-01 1.000000000000E+00
F  1 1.00
8.000000000000E-01 1.000000000000E+00
****
O  0
S  6 1.00
8.588500000000E+03 1.895150000000E-03
1.297230000000E+03 1.438590000000E-02
2.992960000000E+02 7.073200000000E-02
8.737710000000E+01 2.400010000000E-01
2.567890000000E+01 5.947970000000E-01
3.740040000000E+00 2.808020000000E-01
S  3 1.00
4.211750000000E+01 1.138890000000E-01
9.628370000000E+00 9.208110000000E-01
2.853320000000E+00 -3.274470000000E-03
S  1 1.00
9.056610000000E-01 1.000000000000E+00
S  1 1.00
2.556110000000E-01 1.000000000000E+00
S  1 1.00
8.450000000000E-02 1.000000000000E+00
P  3 1.00
4.211750000000E+01 3.651140000000E-02
9.628370000000E+00 2.371530000000E-01
2.853320000000E+00 8.197020000000E-01
P  1 1.00
9.056610000000E-01 1.000000000000E+00
P  1 1.00
2.556110000000E-01 1.000000000000E+00
P  1 1.00
8.450000000000E-02 1.000000000000E+00
D  1 1.00
2.584000000000E+00 1.000000000000E+00
D  1 1.00
6.460000000000E-01 1.000000000000E+00
F  1 1.00
1.400000000000E+00 1.000000000000E+00
****
$end

--------------------------------------------------------------

   19    -272.2144051044      2.50E-09 Convergence criterion met
 Total energy in the final basis set = -272.2144051044
   11    -272.2147858619      5.99E-09 Convergence criterion met
 Total energy in the final basis set = -272.2147858619
   10    -272.2148622410      8.88E-09 Convergence criterion met
 Total energy in the final basis set = -272.2148622410
   10    -272.2148900908      7.62E-09 Convergence criterion met
 Total energy in the final basis set = -272.2148900908
   10    -272.2148947936      3.18E-09 Convergence criterion met
 Total energy in the final basis set = -272.2148947936
   10    -272.2148962920      1.89E-09 Convergence criterion met
 Total energy in the final basis set = -272.2148962920
    9    -272.2148967926      5.48E-09 Convergence criterion met
 Total energy in the final basis set = -272.2148967926
 Final energy is   -272.214896792600
 **  OPTIMIZATION CONVERGED  **
 Total job time:  8402.70s(wall), 8335.08s(cpu)
        *  Thank you very much for using Q-Chem.  Have a nice day.  *

User input:
--------------------------------------------------------------

$molecule
READ
$end

$rem
JOBTYPE Freq
XC_GRID 000075000434
EXCHANGE M08SO
BASIS gen
GUI=2
SCF_GUESS READ
$end

$basis
H  0
S  3 1.00
3.386500000000E+01 2.549380000000E-02
5.094790000000E+00 1.903730000000E-01
1.158790000000E+00 8.521610000000E-01
S  1 1.00
3.258400000000E-01 1.000000000000E+00
S  1 1.00
1.027410000000E-01 1.000000000000E+00
S  1 1.00
3.600000000000E-02 1.000000000000E+00
P  1 1.00
1.500000000000E+00 1.000000000000E+00
P  1 1.00
3.750000000000E-01 1.000000000000E+00
****
C 0
S  6 1.00
4.563240000000E+03 1.966650000000E-03
6.820240000000E+02 1.523060000000E-02
1.549730000000E+02 7.612690000000E-02
4.445530000000E+01 2.608010000000E-01
1.302900000000E+01 6.164620000000E-01
1.827730000000E+00 2.210060000000E-01
S  3 1.00
2.096420000000E+01 1.146600000000E-01
4.803310000000E+00 9.199990000000E-01
1.459330000000E+00 -3.030680000000E-03
S  1 1.00
4.834560000000E-01 1.000000000000E+00
S  1 1.00
1.455850000000E-01 1.000000000000E+00
S  1 1.00
4.380000000000E-02 1.000000000000E+00
P  3 1.00
2.096420000000E+01 4.024870000000E-02
4.803310000000E+00 2.375940000000E-01
1.459330000000E+00 8.158540000000E-01
P  1 1.00
4.834560000000E-01 1.000000000000E+00
P  1 1.00
1.455850000000E-01 1.000000000000E+00
P  1 1.00
4.380000000000E-02 1.000000000000E+00
D  1 1.00
1.252000000000E+00 1.000000000000E+00
D  1 1.00
3.130000000000E-01 1.000000000000E+00
F  1 1.00
8.000000000000E-01 1.000000000000E+00
****
O  0
S  6 1.00
8.588500000000E+03 1.895150000000E-03
1.297230000000E+03 1.438590000000E-02
2.992960000000E+02 7.073200000000E-02
8.737710000000E+01 2.400010000000E-01
2.567890000000E+01 5.947970000000E-01
3.740040000000E+00 2.808020000000E-01
S  3 1.00
4.211750000000E+01 1.138890000000E-01
9.628370000000E+00 9.208110000000E-01
2.853320000000E+00 -3.274470000000E-03
S  1 1.00
9.056610000000E-01 1.000000000000E+00
S  1 1.00
2.556110000000E-01 1.000000000000E+00
S  1 1.00
8.450000000000E-02 1.000000000000E+00
P  3 1.00
4.211750000000E+01 3.651140000000E-02
9.628370000000E+00 2.371530000000E-01
2.853320000000E+00 8.197020000000E-01
P  1 1.00
9.056610000000E-01 1.000000000000E+00
P  1 1.00
2.556110000000E-01 1.000000000000E+00
P  1 1.00
8.450000000000E-02 1.000000000000E+00
D  1 1.00
2.584000000000E+00 1.000000000000E+00
D  1 1.00
6.460000000000E-01 1.000000000000E+00
F  1 1.00
1.400000000000E+00 1.000000000000E+00
****
--------------------------------------------------------------

 Total energy in the final basis set = -272.2148970497
    7    -272.2148970278      5.83E-09 Convergence criterion met
 Total energy in the final basis set = -272.2148970278
    7    -272.2148968077      5.97E-09 Convergence criterion met
 Total energy in the final basis set = -272.2148968077
    7    -272.2148968134      9.75E-09 Convergence criterion met
 Total energy in the final basis set = -272.2148968134
    7    -272.2148968922      8.74E-09 Convergence criterion met
 Total energy in the final basis set = -272.2148968922
    7    -272.2148969175      9.57E-09 Convergence criterion met
 Total energy in the final basis set = -272.2148969175
    7    -272.2148970655      6.49E-09 Convergence criterion met
 Total energy in the final basis set = -272.2148970655
    7    -272.2148970614      5.30E-09 Convergence criterion met
 Total energy in the final basis set = -272.2148970614

                    Orbital Energies (a.u.)
 --------------------------------------------------------------

 Alpha MOs
 -- Occupied --
-19.593 -10.543 -10.506 -10.503 -10.487 -10.483  -1.171  -0.920
 -0.821  -0.777  -0.723  -0.655  -0.585  -0.549  -0.546  -0.510
 -0.487  -0.480  -0.457  -0.446  -0.431  -0.400  -0.395  -0.391
 -0.228

 Beta MOs
 -- Occupied --
-19.588 -10.526 -10.505 -10.504 -10.487 -10.483  -1.159  -0.918
 -0.814  -0.777  -0.710  -0.654  -0.579  -0.540  -0.537  -0.501
 -0.483  -0.461  -0.455  -0.431  -0.430  -0.397  -0.394  -0.390

          Ground-State Mulliken Net Atomic Charges

     Atom                 Charge (a.u.)    Spin (a.u.)
  --------------------------------------------------------
      1 C                    -0.287161       0.035066
      2 C                    -0.229357      -0.128455
      3 C                    -0.290109       0.947297
      4 O                    -0.294395       0.071328
      5 C                    -0.649056      -0.003473
      6 C                    -0.639055       0.017193
      7 H                     0.262386       0.002465
      8 H                     0.184319       0.080633
      9 H                     0.226022       0.016818
     10 H                     0.229678      -0.039311
     11 H                     0.283090      -0.001699
     12 H                     0.206981       0.000948
     13 H                     0.187580      -0.003086
     14 H                     0.195556       0.000894
     15 H                     0.206006       0.002549
     16 H                     0.200312       0.002749
     17 H                     0.207202      -0.001916
  --------------------------------------------------------
  Sum of atomic charges =     0.000000

                    Cartesian Multipole Moments
 -----------------------------------------------------------------
    Charge (ESU x 10^10)
                 0.0000
    Dipole Moment (Debye)
         X       1.1904      Y       0.8291      Z       0.7213
       Tot       1.6201
    Quadrupole Moments (Debye-Ang)
        XX     -45.2890     XY      -2.0934     YY     -40.7849
        XZ      -3.1137     YZ       1.6891     ZZ     -37.7936
    Octapole Moments (Debye-Ang^2)
       XXX       7.7850    XXY       4.2394    XYY      -4.7492
       YYY       2.7881    XXZ       7.8535    XYZ      -4.0357
       YYZ      -0.7859    XZZ      -9.3171    YZZ       0.7945
       ZZZ       2.8579
    Hexadecapole Moments (Debye-Ang^3)
      XXXX    -830.1834   XXXY     -22.5849   XXYY    -167.7732
      XYYY      -2.8034   YYYY    -240.0110   XXXZ     -35.3654
      XXYZ      12.3221   XYYZ      -3.5937   YYYZ       0.2016
      XXZZ    -129.8292   XYZZ      -2.4086   YYZZ     -56.2075

       Standard Nuclear Orientation (Angstroms)
    I     Atom         X            Y            Z
 ----------------------------------------------------
    1      C       0.994771    -0.012388    -0.348564
    2      C      -0.341319     0.578692     0.129336
    3      C      -1.515789    -0.203371    -0.348847
    4      O      -2.762159     0.086146     0.125936
    5      C       2.153272     0.910963     0.037284
    6      C       1.206549    -1.415699     0.227761
    7      H       0.954479    -0.085362    -1.448033
    8      H      -0.410116     1.635409    -0.201273
    9      H      -0.335178     0.607156     1.237066
   10      H      -1.533372    -0.677795    -1.327454
   11      H      -2.698345     0.555229     0.965837
   12      H       2.208333     1.012505     1.131328
   13      H       2.027598     1.914680    -0.389324
   14      H       3.113463     0.508442    -0.309671
   15      H       1.259359    -1.366403     1.325835
   16      H       2.144981    -1.854368    -0.135204
   17      H       0.381172    -2.087842    -0.038408
 ----------------------------------------------------

 Frequency:        77.72                 106.45                 172.13
 Force Cnst:      0.0106                 0.0125                 0.0505
 Red. Mass:       2.9646                 1.8724                 2.8917
 IR Intens:        0.000                  0.000                  0.000
 Frequency:       217.16                 249.02                 316.76
 Force Cnst:      0.0294                 0.0398                 0.1479
 Red. Mass:       1.0594                 1.0895                 2.5019
 IR Intens:        0.000                  0.000                  0.000
 Frequency:       332.16                 371.04                 423.33
 Force Cnst:      0.0874                 0.1765                 0.2279
 Red. Mass:       1.3438                 2.1756                 2.1582
 IR Intens:        0.000                  0.000                  0.000
 Frequency:       454.91                 514.81                 833.19
 Force Cnst:      0.3097                 0.1969                 1.0088
 Red. Mass:       2.5401                 1.2610                 2.4665
 IR Intens:        0.000                  0.000                  0.000
 Frequency:       878.97                 912.95                 948.56
 Force Cnst:      0.6154                 0.5676                 0.8332
 Red. Mass:       1.3520                 1.1558                 1.5717
 IR Intens:        0.000                  0.000                  0.000
 Frequency:       966.17                1040.63                1087.58
 Force Cnst:      0.9423                 1.7285                 0.9077
 Red. Mass:       1.7134                 2.7092                 1.3025
 IR Intens:        0.000                  0.000                  0.000
 Frequency:      1128.86                1180.45                1203.48
 Force Cnst:      1.3567                 1.3456                 1.4538
 Red. Mass:       1.8070                 1.6389                 1.7037
 IR Intens:        0.000                  0.000                  0.000
 Frequency:      1225.02                1242.56                1318.59
 Force Cnst:      1.3016                 1.4673                 1.5772
 Red. Mass:       1.4721                 1.6130                 1.5396
 IR Intens:        0.000                  0.000                  0.000
 Frequency:      1344.71                1368.11                1384.50
 Force Cnst:      1.4982                 1.6284                 1.5547
 Red. Mass:       1.4062                 1.4766                 1.3766
 IR Intens:        0.000                  0.000                  0.000
 Frequency:      1398.33                1430.44                1455.59
 Force Cnst:      1.4567                 2.0388                 1.5283
 Red. Mass:       1.2644                 1.6911                 1.2243
 IR Intens:        0.000                  0.000                  0.000
 Frequency:      1463.55                1470.91                1479.98
 Force Cnst:      1.3148                 1.3647                 1.3567
 Red. Mass:       1.0418                 1.0706                 1.0513
 IR Intens:        0.000                  0.000                  0.000
 Frequency:      1485.77                2892.23                2922.26
 Force Cnst:      1.3856                 5.2388                 5.4926
 Red. Mass:       1.0653                 1.0629                 1.0917
 IR Intens:        0.000                  0.000                  0.000
 Frequency:      2957.74                2968.15                2972.21
 Force Cnst:      5.5754                 5.3922                 5.4147
 Red. Mass:       1.0817                 1.0388                 1.0403
 IR Intens:        0.000                  0.000                  0.000
 Frequency:      3034.87                3039.68                3054.78
 Force Cnst:      5.9592                 5.9775                 6.0609
 Red. Mass:       1.0981                 1.0980                 1.1024
 IR Intens:        0.000                  0.000                  0.000
 Frequency:      3056.39                3177.94                3877.73
 Force Cnst:      6.0659                 6.4809                 9.4446
 Red. Mass:       1.1021                 1.0892                 1.0661
 IR Intens:        0.000                  0.000                  0.000

 STANDARD THERMODYNAMIC QUANTITIES AT   298.15 K  AND     1.00 ATM

   This Molecule has  0 Imaginary Frequencies
   Zero point vibrational energy:       93.549 kcal/mol

   Atom    1 Element C  Has Mass   12.00000
   Atom    2 Element C  Has Mass   12.00000
   Atom    3 Element C  Has Mass   12.00000
   Atom    4 Element O  Has Mass   15.99491
   Atom    5 Element C  Has Mass   12.00000
   Atom    6 Element C  Has Mass   12.00000
   Atom    7 Element H  Has Mass    1.00783
   Atom    8 Element H  Has Mass    1.00783
   Atom    9 Element H  Has Mass    1.00783
   Atom   10 Element H  Has Mass    1.00783
   Atom   11 Element H  Has Mass    1.00783
   Atom   12 Element H  Has Mass    1.00783
   Atom   13 Element H  Has Mass    1.00783
   Atom   14 Element H  Has Mass    1.00783
   Atom   15 Element H  Has Mass    1.00783
   Atom   16 Element H  Has Mass    1.00783
   Atom   17 Element H  Has Mass    1.00783
   Molecular Mass:    87.081040 amu
   Principal axes and moments of inertia in atomic units:
                             1           2           3
    Eigenvalues --      253.43258  1018.71723  1174.05188
          X               1.00000    -0.00090    -0.00044
          Y               0.00090     0.99986     0.01700
          Z               0.00043    -0.01700     0.99986
   Rotational Symmetry Number is   1
   The Molecule is an Asymmetric Top
   Translational Enthalpy:        0.889 kcal/mol
   Rotational Enthalpy:           0.889 kcal/mol
   Vibrational Enthalpy:         96.998 kcal/mol
   gas constant (RT):             0.592 kcal/mol
   Translational Entropy:        39.306  cal/mol.K
   Rotational Entropy:           27.207  cal/mol.K
   Vibrational Entropy:          20.583  cal/mol.K

   Total Enthalpy:               99.368 kcal/mol
   Total Entropy:                87.095  cal/mol.K

 Total job time:  85150.62s(wall), 84492.66s(cpu)
        *  Thank you very much for using Q-Chem.  Have a nice day.  *
