 Q-Chem 4.2, Q-Chem, Inc., Pleasanton, CA (2014).
 Q-Chem 4.2.0 for Intel X86 Linux

User input:
--------------------------------------------------------------
$rem
SCF_ALGORITHM DIIS_GDM
max_scf_cycles = 100
incdft false
varthresh false
SCF_CONVERGENCE =  5
THRESH = 10
GEOM_OPT_TOL_DISPLACEMENT 3000
JOBTYPE pes_scan
EXCHANGE M062X
BASIS gen
GUI=2
UNRESTRICTED TRUE
CORRELATION NONE
MAX_SCF_CYCLES 80
GEOM_OPT_MAX_CYCLES 90
$end

$scan
tors 7 1 5 12 -180 180 15
$end

$comment
c5h11o-1
$end

$molecule
READ c5h11o-2MG3S.out
$end

$basis
H  0
S  3 1.00
3.386500000000E+01 2.549380000000E-02
5.094790000000E+00 1.903730000000E-01
1.158790000000E+00 8.521610000000E-01
S  1 1.00
3.258400000000E-01 1.000000000000E+00
S  1 1.00
1.027410000000E-01 1.000000000000E+00
S  1 1.00
3.600000000000E-02 1.000000000000E+00
P  1 1.00
1.500000000000E+00 1.000000000000E+00
P  1 1.00
3.750000000000E-01 1.000000000000E+00
****
C 0
S  6 1.00
4.563240000000E+03 1.966650000000E-03
6.820240000000E+02 1.523060000000E-02
1.549730000000E+02 7.612690000000E-02
4.445530000000E+01 2.608010000000E-01
1.302900000000E+01 6.164620000000E-01
1.827730000000E+00 2.210060000000E-01
S  3 1.00
2.096420000000E+01 1.146600000000E-01
4.803310000000E+00 9.199990000000E-01
1.459330000000E+00 -3.030680000000E-03
S  1 1.00
4.834560000000E-01 1.000000000000E+00
S  1 1.00
1.455850000000E-01 1.000000000000E+00
S  1 1.00
4.380000000000E-02 1.000000000000E+00
P  3 1.00
2.096420000000E+01 4.024870000000E-02
4.803310000000E+00 2.375940000000E-01
1.459330000000E+00 8.158540000000E-01
P  1 1.00
4.834560000000E-01 1.000000000000E+00
P  1 1.00
1.455850000000E-01 1.000000000000E+00
P  1 1.00
4.380000000000E-02 1.000000000000E+00
D  1 1.00
1.252000000000E+00 1.000000000000E+00
D  1 1.00
3.130000000000E-01 1.000000000000E+00
F  1 1.00
8.000000000000E-01 1.000000000000E+00
****
O  0
S  6 1.00
8.588500000000E+03 1.895150000000E-03
1.297230000000E+03 1.438590000000E-02
2.992960000000E+02 7.073200000000E-02
8.737710000000E+01 2.400010000000E-01
2.567890000000E+01 5.947970000000E-01
3.740040000000E+00 2.808020000000E-01
S  3 1.00
4.211750000000E+01 1.138890000000E-01
9.628370000000E+00 9.208110000000E-01
2.853320000000E+00 -3.274470000000E-03
S  1 1.00
9.056610000000E-01 1.000000000000E+00
S  1 1.00
2.556110000000E-01 1.000000000000E+00
S  1 1.00
8.450000000000E-02 1.000000000000E+00
P  3 1.00
4.211750000000E+01 3.651140000000E-02
9.628370000000E+00 2.371530000000E-01
2.853320000000E+00 8.197020000000E-01
P  1 1.00
9.056610000000E-01 1.000000000000E+00
P  1 1.00
2.556110000000E-01 1.000000000000E+00
P  1 1.00
8.450000000000E-02 1.000000000000E+00
D  1 1.00
2.584000000000E+00 1.000000000000E+00
D  1 1.00
6.460000000000E-01 1.000000000000E+00
F  1 1.00
1.400000000000E+00 1.000000000000E+00
****
$end

--------------------------------------------------------------

   15    -272.2821182767      8.43E-06 Convergence criterion met
 Total energy in the final basis set = -272.2821182767
   15    -272.2824032515      8.80E-06 Convergence criterion met
 Total energy in the final basis set = -272.2824032515
   15    -272.2824275007      8.95E-06 Convergence criterion met
 Total energy in the final basis set = -272.2824275007
   15    -272.2824529465      9.26E-06 Convergence criterion met
 Total energy in the final basis set = -272.2824529465
   15    -272.2824597113      9.31E-06 Convergence criterion met
 Total energy in the final basis set = -272.2824597113
   15    -272.2824643693      9.30E-06 Convergence criterion met
 Total energy in the final basis set = -272.2824643693
   15    -272.2824666252      9.29E-06 Convergence criterion met
 Total energy in the final basis set = -272.2824666252
   15    -272.2824685195      9.28E-06 Convergence criterion met
 **  OPTIMIZATION CONVERGED  **
 **  OPTIMIZATION CONVERGED  **
 **  OPTIMIZATION CONVERGED  **
   15    -272.2798858451      8.99E-06 Convergence criterion met
 Total energy in the final basis set = -272.2798858451
   15    -272.2807170281      9.14E-06 Convergence criterion met
 Total energy in the final basis set = -272.2807170281
   15    -272.2820292321      9.47E-06 Convergence criterion met
 Total energy in the final basis set = -272.2820292321
   15    -272.2821805054      9.27E-06 Convergence criterion met
 Total energy in the final basis set = -272.2821805054
   15    -272.2821919670      9.17E-06 Convergence criterion met
 Total energy in the final basis set = -272.2821919670
   15    -272.2821954130      9.16E-06 Convergence criterion met
 Total energy in the final basis set = -272.2821954130

             Standard Nuclear Orientation (Angstroms)
    I     Atom           X                Y                Z
 ----------------------------------------------------------------
    1      C       1.0366886517    -0.1965678877    -0.1569120716
    2      C      -0.2901178081     0.5631492836    -0.2607496159
    3      C      -1.4270806906    -0.3272998679    -0.6190965805
    4      O      -2.6981607322     0.1675841291    -0.6030122096
    5      C       2.2061143069     0.7744135816    -0.0286000618
    6      C       1.0195632706    -1.1698438580     1.0188069489
    7      H       1.1612024980    -0.7695759411    -1.0813707250
    8      H      -0.1873055705     1.3727250651    -0.9988116415
    9      H      -0.4928443713     1.0523480512     0.7019520971
   10      H      -1.3011362990    -1.0977487661    -1.3680185029
   11      H      -2.7513681837     0.9055581746     0.0095494513
   12      H       2.1121755159     1.3633727245     0.8861248312
   13      H       2.2501117118     1.4633933153    -0.8723281032
   14      H       3.1538282567     0.2389746828     0.0190881963
   15      H       0.9693805753    -0.6180724984     1.9597841409
   16      H       1.9255731239    -1.7745179085     1.0372833566
   17      H       0.1584749761    -1.8348422288     0.9720136892
 ----------------------------------------------------------------

   15    -272.2821963598      9.16E-06 Convergence criterion met
 Total energy in the final basis set = -272.2821963598

                    Orbital Energies (a.u.)
 --------------------------------------------------------------

 Alpha MOs
 -- Occupied --
-19.649 -10.578 -10.543 -10.540 -10.524 -10.520  -1.180  -0.920
 -0.822  -0.777  -0.721  -0.653  -0.581  -0.544  -0.539  -0.505
 -0.481  -0.474  -0.451  -0.438  -0.425  -0.392  -0.389  -0.383
 -0.223

 Beta MOs
 -- Occupied --
-19.646 -10.570 -10.543 -10.540 -10.524 -10.520  -1.167  -0.917
 -0.811  -0.777  -0.705  -0.651  -0.570  -0.532  -0.530  -0.497
 -0.478  -0.453  -0.447  -0.424  -0.421  -0.389  -0.388  -0.379

          Ground-State Mulliken Net Atomic Charges

     Atom                 Charge (a.u.)    Spin (a.u.)
  --------------------------------------------------------
      1 C                    -0.058691       0.060425
      2 C                    -0.155071      -0.056452
      3 C                    -0.301321       0.893860
      4 O                    -0.268153       0.092313
      5 C                    -0.486732       0.002650
      6 C                    -0.471001       0.010220
      7 H                     0.171649      -0.009877
      8 H                     0.127607       0.069302
      9 H                     0.157341       0.007968
     10 H                     0.186659      -0.052738
     11 H                     0.256677      -0.003007
     12 H                     0.140383       0.000048
     13 H                     0.130820      -0.004216
     14 H                     0.141271      -0.000013
     15 H                     0.138452      -0.002760
     16 H                     0.143318      -0.000469
     17 H                     0.146791      -0.007257
  --------------------------------------------------------
  Sum of atomic charges =     0.000000

                    Cartesian Multipole Moments
 -----------------------------------------------------------------
    Charge (ESU x 10^10)
                 0.0000
    Dipole Moment (Debye)
         X       1.0775      Y       1.0398      Z       0.5756
       Tot       1.6042
    Quadrupole Moments (Debye-Ang)
        XX     -43.7301     XY      -3.4297     YY     -38.7688
        XZ      -3.1345     YZ       1.5390     ZZ     -40.1590

 Final energy is   -272.282196359786
 **  OPTIMIZATION CONVERGED  **
 Total job time:  51227.95s(wall), 16694.67s(cpu)
        *  Thank you very much for using Q-Chem.  Have a nice day.  *
