 Q-Chem 4.2, Q-Chem, Inc., Pleasanton, CA (2014).
 Q-Chem 4.2.0 for Intel X86 Linux

User input:
--------------------------------------------------------------
$rem
XC_GRID 000075000434
JOBTYPE opt
EXCHANGE M08SO
SCF_ALGORITHM DIIS_GDM
BASIS gen
GUI=2
UNRESTRICTED TRUE
CORRELATION NONE
$end

$comment
c5h11o-2
$end

$molecule
0 2
C        -1.7170206182   -0.9051346785    0.6026608630
C        -1.0556295075   -0.0542546501   -0.4842397155
C        -0.9600384715    1.4068860248   -0.0337295679
C         0.3436451532   -0.6186315053   -0.8427510487
C         1.3479005731   -0.5458611343    0.2565113345
O         2.0637846789    0.5986096426    0.4566375381
H        -1.6689702424   -0.1018174287   -1.3977784644
H        -1.0988901825   -0.8950900552    1.5121799525
H        -2.7107124214   -0.5173129388    0.8614005138
H        -1.8290590173   -1.9489278579    0.2802017706
H        -0.3932726830    1.4783644283    0.9068011932
H        -0.4651902016    2.0327666133   -0.7925925608
H        -1.9553615328    1.8321659042    0.1471112643
H         0.7280702214   -0.0685577255   -1.7241637374
H         0.2302774799   -1.6678860705   -1.1521618059
H         1.7698049103   -1.4068920960    0.7624561736
H         1.6919841919    1.3197896683   -0.0653087857
$end

$basis
H  0
S  3 1.00
3.386500000000E+01 2.549380000000E-02
5.094790000000E+00 1.903730000000E-01
1.158790000000E+00 8.521610000000E-01
S  1 1.00
3.258400000000E-01 1.000000000000E+00
S  1 1.00
1.027410000000E-01 1.000000000000E+00
S  1 1.00
3.600000000000E-02 1.000000000000E+00
P  1 1.00
1.500000000000E+00 1.000000000000E+00
P  1 1.00
3.750000000000E-01 1.000000000000E+00
****
C 0
S  6 1.00
4.563240000000E+03 1.966650000000E-03
6.820240000000E+02 1.523060000000E-02
1.549730000000E+02 7.612690000000E-02
4.445530000000E+01 2.608010000000E-01
1.302900000000E+01 6.164620000000E-01
1.827730000000E+00 2.210060000000E-01
S  3 1.00
2.096420000000E+01 1.146600000000E-01
4.803310000000E+00 9.199990000000E-01
1.459330000000E+00 -3.030680000000E-03
S  1 1.00
4.834560000000E-01 1.000000000000E+00
S  1 1.00
1.455850000000E-01 1.000000000000E+00
S  1 1.00
4.380000000000E-02 1.000000000000E+00
P  3 1.00
2.096420000000E+01 4.024870000000E-02
4.803310000000E+00 2.375940000000E-01
1.459330000000E+00 8.158540000000E-01
P  1 1.00
4.834560000000E-01 1.000000000000E+00
P  1 1.00
1.455850000000E-01 1.000000000000E+00
P  1 1.00
4.380000000000E-02 1.000000000000E+00
D  1 1.00
1.252000000000E+00 1.000000000000E+00
D  1 1.00
3.130000000000E-01 1.000000000000E+00
F  1 1.00
8.000000000000E-01 1.000000000000E+00
****
O  0
S  6 1.00
8.588500000000E+03 1.895150000000E-03
1.297230000000E+03 1.438590000000E-02
2.992960000000E+02 7.073200000000E-02
8.737710000000E+01 2.400010000000E-01
2.567890000000E+01 5.947970000000E-01
3.740040000000E+00 2.808020000000E-01
S  3 1.00
4.211750000000E+01 1.138890000000E-01
9.628370000000E+00 9.208110000000E-01
2.853320000000E+00 -3.274470000000E-03
S  1 1.00
9.056610000000E-01 1.000000000000E+00
S  1 1.00
2.556110000000E-01 1.000000000000E+00
S  1 1.00
8.450000000000E-02 1.000000000000E+00
P  3 1.00
4.211750000000E+01 3.651140000000E-02
9.628370000000E+00 2.371530000000E-01
2.853320000000E+00 8.197020000000E-01
P  1 1.00
9.056610000000E-01 1.000000000000E+00
P  1 1.00
2.556110000000E-01 1.000000000000E+00
P  1 1.00
8.450000000000E-02 1.000000000000E+00
D  1 1.00
2.584000000000E+00 1.000000000000E+00
D  1 1.00
6.460000000000E-01 1.000000000000E+00
F  1 1.00
1.400000000000E+00 1.000000000000E+00
****
$end

--------------------------------------------------------------

   22    -272.2153310651      9.45E-09 Convergence criterion met
 Total energy in the final basis set = -272.2153310651
   13    -272.2153324378      4.73E-09 Convergence criterion met
 Total energy in the final basis set = -272.2153324378
   12    -272.2153338839      7.57E-09 Convergence criterion met
 Total energy in the final basis set = -272.2153338839
   11    -272.2153344919      8.86E-09 Convergence criterion met
 Total energy in the final basis set = -272.2153344919
 Final energy is   -272.215334491936
 **  OPTIMIZATION CONVERGED  **
 Total job time:  6653.72s(wall), 4370.90s(cpu)
        *  Thank you very much for using Q-Chem.  Have a nice day.  *
 Q-Chem 4.2, Q-Chem, Inc., Pleasanton, CA (2014).
 Q-Chem 4.2.0 for Intel X86 Linux

User input:
--------------------------------------------------------------

$molecule
READ
$end

$rem
JOBTYPE Freq
iprint 10000000
XC_GRID 000075000434
EXCHANGE M08SO
BASIS gen
GUI=2
SCF_GUESS READ
$end

$basis
H  0
S  3 1.00
3.386500000000E+01 2.549380000000E-02
5.094790000000E+00 1.903730000000E-01
1.158790000000E+00 8.521610000000E-01
S  1 1.00
3.258400000000E-01 1.000000000000E+00
S  1 1.00
1.027410000000E-01 1.000000000000E+00
S  1 1.00
3.600000000000E-02 1.000000000000E+00
P  1 1.00
1.500000000000E+00 1.000000000000E+00
P  1 1.00
3.750000000000E-01 1.000000000000E+00
****
C 0
S  6 1.00
4.563240000000E+03 1.966650000000E-03
6.820240000000E+02 1.523060000000E-02
1.549730000000E+02 7.612690000000E-02
4.445530000000E+01 2.608010000000E-01
1.302900000000E+01 6.164620000000E-01
1.827730000000E+00 2.210060000000E-01
S  3 1.00
2.096420000000E+01 1.146600000000E-01
4.803310000000E+00 9.199990000000E-01
1.459330000000E+00 -3.030680000000E-03
S  1 1.00
4.834560000000E-01 1.000000000000E+00
S  1 1.00
1.455850000000E-01 1.000000000000E+00
S  1 1.00
4.380000000000E-02 1.000000000000E+00
P  3 1.00
2.096420000000E+01 4.024870000000E-02
4.803310000000E+00 2.375940000000E-01
1.459330000000E+00 8.158540000000E-01
P  1 1.00
4.834560000000E-01 1.000000000000E+00
P  1 1.00
1.455850000000E-01 1.000000000000E+00
P  1 1.00
4.380000000000E-02 1.000000000000E+00
D  1 1.00
1.252000000000E+00 1.000000000000E+00
D  1 1.00
3.130000000000E-01 1.000000000000E+00
F  1 1.00
8.000000000000E-01 1.000000000000E+00
****
O  0
S  6 1.00
8.588500000000E+03 1.895150000000E-03
1.297230000000E+03 1.438590000000E-02
2.992960000000E+02 7.073200000000E-02
8.737710000000E+01 2.400010000000E-01
2.567890000000E+01 5.947970000000E-01
3.740040000000E+00 2.808020000000E-01
S  3 1.00
4.211750000000E+01 1.138890000000E-01
9.628370000000E+00 9.208110000000E-01
2.853320000000E+00 -3.274470000000E-03
S  1 1.00
9.056610000000E-01 1.000000000000E+00
S  1 1.00
2.556110000000E-01 1.000000000000E+00
S  1 1.00
8.450000000000E-02 1.000000000000E+00
P  3 1.00
4.211750000000E+01 3.651140000000E-02
9.628370000000E+00 2.371530000000E-01
2.853320000000E+00 8.197020000000E-01
P  1 1.00
9.056610000000E-01 1.000000000000E+00
P  1 1.00
2.556110000000E-01 1.000000000000E+00
P  1 1.00
8.450000000000E-02 1.000000000000E+00
D  1 1.00
2.584000000000E+00 1.000000000000E+00
D  1 1.00
6.460000000000E-01 1.000000000000E+00
F  1 1.00
1.400000000000E+00 1.000000000000E+00
****
--------------------------------------------------------------

    9    -272.2153330247      6.04E-09 Convergence criterion met
 Total energy in the final basis set = -272.2153330247
    8    -272.2153321012      1.85E-09 Convergence criterion met
 Total energy in the final basis set = -272.2153321012
    8    -272.2153320406      3.66E-09 Convergence criterion met
 Total energy in the final basis set = -272.2153320406
 Total energy in the final basis set = -272.2153328354
    8    -272.2153329059      4.94E-09 Convergence criterion met
 Total energy in the final basis set = -272.2153329059
    8    -272.2153328417      3.83E-09 Convergence criterion met
 Total energy in the final basis set = -272.2153328417
    8    -272.2153329117      3.64E-09 Convergence criterion met
 Total energy in the final basis set = -272.2153329117
    7    -272.2153323978      6.73E-09 Convergence criterion met
 Total energy in the final basis set = -272.2153323978
    8    -272.2153323538      5.22E-09 Convergence criterion met
 Total energy in the final basis set = -272.2153323538
    7    -272.2153328125      9.28E-09 Convergence criterion met
 Total energy in the final basis set = -272.2153328125
    8    -272.2153327251      5.63E-09 Convergence criterion met
 Total energy in the final basis set = -272.2153327251

                    Orbital Energies (a.u.)
 --------------------------------------------------------------

 Alpha MOs
 -- Occupied --
-19.593 -10.542 -10.506 -10.504 -10.491 -10.483  -1.171  -0.918
 -0.821  -0.779  -0.727  -0.655  -0.573  -0.561  -0.543  -0.513
 -0.497  -0.481  -0.457  -0.438  -0.434  -0.403  -0.399  -0.389
 -0.225

 Beta MOs
 -- Occupied --
-19.588 -10.526 -10.505 -10.504 -10.491 -10.483  -1.158  -0.916
 -0.815  -0.779  -0.714  -0.654  -0.566  -0.551  -0.535  -0.510
 -0.494  -0.460  -0.443  -0.438  -0.431  -0.399  -0.394  -0.388

          Ground-State Mulliken Net Atomic Charges

     Atom                 Charge (a.u.)    Spin (a.u.)
  --------------------------------------------------------
      1 C                    -0.670461       0.001582
      2 C                    -0.065044       0.061958
      3 C                    -0.775632      -0.032367
      4 C                    -0.590000      -0.089297
      5 C                    -0.232732       0.961416
      6 O                    -0.270455       0.064530
      7 H                     0.255947       0.008183
      8 H                     0.228305      -0.000335
      9 H                     0.191507       0.002512
     10 H                     0.186532      -0.002026
     11 H                     0.270745      -0.003770
     12 H                     0.223932       0.006536
     13 H                     0.203702      -0.004669
     14 H                     0.288457       0.039538
     15 H                     0.232678       0.018670
     16 H                     0.236666      -0.034703
     17 H                     0.285854       0.002242
  --------------------------------------------------------
  Sum of atomic charges =     0.000000

                    Cartesian Multipole Moments
 -----------------------------------------------------------------
    Charge (ESU x 10^10)
                 0.0000
    Dipole Moment (Debye)
         X      -1.2810      Y       0.3393      Z      -1.1361
       Tot       1.7455
    Quadrupole Moments (Debye-Ang)
        XX     -44.6142     XY       0.2615     YY     -37.6492
        XZ      -1.6081     YZ      -0.8874     ZZ     -41.1247

             Standard Nuclear Orientation (Angstroms)
    I     Atom           X                Y                Z
 ----------------------------------------------------------------
    1      C      -1.7633484533    -0.7384120465     0.6351589668
    2      C      -1.0390164326     0.0540882003    -0.4556611567
    3      C      -0.7704321286     1.4870788173     0.0152197506
    4      C       0.2797440597    -0.6550527404    -0.8604514161
    5      C       1.3162076167    -0.7059431405     0.2097306132
    6      O       2.1543110068     0.3534865426     0.4039753296
    7      H      -1.6766740429     0.0919256524    -1.3527812356
    8      H      -1.1231947410    -0.8182234122     1.5260181799
    9      H      -2.6985340877    -0.2452053350     0.9302303063
   10      H      -2.0031039051    -1.7554089996     0.2975945204
   11      H      -0.1790758606     1.4775726552     0.9431219950
   12      H      -0.2253291312     2.0676345243    -0.7455372517
   13      H      -1.7076692739     2.0175844189     0.2260619653
   14      H       0.6971311002    -0.1394654222    -1.7476828636
   15      H       0.0440296131    -1.6817517212    -1.1761089204
   16      H       1.6587849599    -1.6144796154     0.6917808443
   17      H       1.8402193436     1.1213703725    -0.0884807233
 ----------------------------------------------------------------

 Frequency:        88.54                 112.92                 192.17
 Force Cnst:      0.0142                 0.0149                 0.0349
 Red. Mass:       3.0708                 1.9897                 1.6035
 IR Intens:        0.398                  3.345                  7.792
 Frequency:       237.04                 276.52                 306.59
 Force Cnst:      0.0364                 0.1353                 0.0624
 Red. Mass:       1.0989                 3.0032                 1.1273
 IR Intens:        0.323                  3.859                  3.191
 Frequency:       317.83                 356.76                 395.06
 Force Cnst:      0.1198                 0.1507                 0.1212
 Red. Mass:       2.0137                 2.0100                 1.3183
 IR Intens:        2.784                  1.904                 66.300
 Frequency:       441.25                 588.51                 782.87
 Force Cnst:      0.1719                 0.4979                 1.1318
 Red. Mass:       1.4984                 2.4401                 3.1344
 IR Intens:       47.217                  7.128                  1.160
 Frequency:       865.72                 915.94                 935.70
 Force Cnst:      0.7568                 0.5959                 0.9398
 Red. Mass:       1.7139                 1.2055                 1.8219
 IR Intens:        2.979                  3.096                  7.222
 Frequency:       964.49                 993.52                1074.72
 Force Cnst:      0.8798                 1.2125                 0.9352
 Red. Mass:       1.6052                 2.0848                 1.3743
 IR Intens:        0.456                 29.519                  2.353
 Frequency:      1101.44                1177.67                1197.81
 Force Cnst:      1.0540                 1.2956                 1.3753
 Red. Mass:       1.4746                 1.5856                 1.6269
 IR Intens:       22.491                 58.065                 22.323
 Frequency:      1223.76                1287.90                1324.77
 Force Cnst:      1.2076                 1.7544                 1.8380
 Red. Mass:       1.3686                 1.7952                 1.7775
 IR Intens:       17.924                  2.557                  4.571
 Frequency:      1343.55                1348.78                1386.23
 Force Cnst:      1.3702                 1.4498                 1.6302
 Red. Mass:       1.2884                 1.3526                 1.4399
 IR Intens:       14.386                  0.636                 12.170
 Frequency:      1394.84                1424.66                1450.69
 Force Cnst:      1.4574                 1.6324                 1.7697
 Red. Mass:       1.2714                 1.3650                 1.4273
 IR Intens:       11.900                 49.923                 30.185
 Frequency:      1466.65                1473.79                1485.96
 Force Cnst:      1.3214                 1.3551                 1.3596
 Red. Mass:       1.0426                 1.0589                 1.0451
 IR Intens:        3.039                  2.937                 15.184
 Frequency:      1493.42                2907.91                2957.49
 Force Cnst:      1.3981                 5.3288                 5.3515
 Red. Mass:       1.0640                 1.0696                 1.0384
 IR Intens:        7.999                 40.952                 27.117
 Frequency:      2964.45                2970.06                3009.22
 Force Cnst:      5.6136                 5.3850                 5.8199
 Red. Mass:       1.0842                 1.0361                 1.0908
 IR Intens:       25.087                 20.411                 18.943
 Frequency:      3024.75                3039.14                3045.67
 Force Cnst:      5.9267                 5.9894                 6.0125
 Red. Mass:       1.0995                 1.1006                 1.1001
 IR Intens:       26.148                 18.616                 26.100
 Frequency:      3048.20                3217.27                3859.07
 Force Cnst:      6.0343                 6.6530                 9.3539
 Red. Mass:       1.1023                 1.0909                 1.0661
 IR Intens:       31.170                  7.569                 49.592

 STANDARD THERMODYNAMIC QUANTITIES AT   298.15 K  AND     1.00 ATM

   This Molecule has  0 Imaginary Frequencies
   Zero point vibrational energy:       93.596 kcal/mol

   Atom    1 Element C  Has Mass   12.00000
   Atom    2 Element C  Has Mass   12.00000
   Atom    3 Element C  Has Mass   12.00000
   Atom    4 Element C  Has Mass   12.00000
   Atom    5 Element C  Has Mass   12.00000
   Atom    6 Element O  Has Mass   15.99491
   Atom    7 Element H  Has Mass    1.00783
   Atom    8 Element H  Has Mass    1.00783
   Atom    9 Element H  Has Mass    1.00783
   Atom   10 Element H  Has Mass    1.00783
   Atom   11 Element H  Has Mass    1.00783
   Atom   12 Element H  Has Mass    1.00783
   Atom   13 Element H  Has Mass    1.00783
   Atom   14 Element H  Has Mass    1.00783
   Atom   15 Element H  Has Mass    1.00783
   Atom   16 Element H  Has Mass    1.00783
   Atom   17 Element H  Has Mass    1.00783
   Molecular Mass:    87.081040 amu
   Principal axes and moments of inertia in amu*Bohr^2:
                             1           2           3
    Eigenvalues --      351.30607   746.97850   877.64267
          X               0.99977    -0.00105    -0.02147
          Y               0.00058     0.99976    -0.02199
          Z               0.02148     0.02197     0.99953
   Rotational Symmetry Number is   1
   The Molecule is an Asymmetric Top
   Translational Enthalpy:        0.889 kcal/mol
   Rotational Enthalpy:           0.889 kcal/mol
   Vibrational Enthalpy:         97.002 kcal/mol
   gas constant (RT):             0.592 kcal/mol
   Translational Entropy:        39.306  cal/mol.K
   Rotational Entropy:           26.934  cal/mol.K
   Vibrational Entropy:          19.919  cal/mol.K

   Total Enthalpy:               99.371 kcal/mol
   Total Entropy:                86.159  cal/mol.K

 Total job time:  85551.93s(wall), 55269.80s(cpu)
        *  Thank you very much for using Q-Chem.  Have a nice day.  *
