 Q-Chem 4.2, Q-Chem, Inc., Pleasanton, CA (2014).
 Q-Chem 4.2.0 for Intel X86 Linux

User input:
--------------------------------------------------------------
$rem
XC_GRID 000075000434
JOBTYPE ts
EXCHANGE M08SO
SCF_ALGORITHM DIIS_GDM
BASIS gen
GUI=2
UNRESTRICTED TRUE
CORRELATION NONE
$end

$comment
c5h11o-2
$end

$molecule
0 2
C       -1.25740       -1.45929        0.09504
C       -0.81284       -0.10410       -0.38119
C       -1.60850        1.08480        0.07877
C        1.15469        0.31653        0.42688
C        1.97581       -0.88408       -0.01577
O        1.39079        1.44796       -0.05552
H       -2.28211       -1.65918       -0.25728
H       -1.28687       -1.51264        1.19095
H       -0.62437       -2.26909       -0.27815
H       -0.45857       -0.05469       -1.41074
H       -1.75153        1.07460        1.16670
H       -2.60999        1.07111       -0.37902
H       -1.11604        2.01997       -0.19784
H        0.72580        0.24450        1.44776
H        2.13928       -0.85837       -1.09705
H        1.50704       -1.82743        0.27094
H        2.95367       -0.82662        0.47863
$end

$basis
H  0
S  3 1.00
3.386500000000E+01 2.549380000000E-02
5.094790000000E+00 1.903730000000E-01
1.158790000000E+00 8.521610000000E-01
S  1 1.00
3.258400000000E-01 1.000000000000E+00
S  1 1.00
1.027410000000E-01 1.000000000000E+00
S  1 1.00
3.600000000000E-02 1.000000000000E+00
P  1 1.00
1.500000000000E+00 1.000000000000E+00
P  1 1.00
3.750000000000E-01 1.000000000000E+00
****
C 0
S  6 1.00
4.563240000000E+03 1.966650000000E-03
6.820240000000E+02 1.523060000000E-02
1.549730000000E+02 7.612690000000E-02
4.445530000000E+01 2.608010000000E-01
1.302900000000E+01 6.164620000000E-01
1.827730000000E+00 2.210060000000E-01
S  3 1.00
2.096420000000E+01 1.146600000000E-01
4.803310000000E+00 9.199990000000E-01
1.459330000000E+00 -3.030680000000E-03
S  1 1.00
4.834560000000E-01 1.000000000000E+00
S  1 1.00
1.455850000000E-01 1.000000000000E+00
S  1 1.00
4.380000000000E-02 1.000000000000E+00
P  3 1.00
2.096420000000E+01 4.024870000000E-02
4.803310000000E+00 2.375940000000E-01
1.459330000000E+00 8.158540000000E-01
P  1 1.00
4.834560000000E-01 1.000000000000E+00
P  1 1.00
1.455850000000E-01 1.000000000000E+00
P  1 1.00
4.380000000000E-02 1.000000000000E+00
D  1 1.00
1.252000000000E+00 1.000000000000E+00
D  1 1.00
3.130000000000E-01 1.000000000000E+00
F  1 1.00
8.000000000000E-01 1.000000000000E+00
****
O  0
S  6 1.00
8.588500000000E+03 1.895150000000E-03
1.297230000000E+03 1.438590000000E-02
2.992960000000E+02 7.073200000000E-02
8.737710000000E+01 2.400010000000E-01
2.567890000000E+01 5.947970000000E-01
3.740040000000E+00 2.808020000000E-01
S  3 1.00
4.211750000000E+01 1.138890000000E-01
9.628370000000E+00 9.208110000000E-01
2.853320000000E+00 -3.274470000000E-03
S  1 1.00
9.056610000000E-01 1.000000000000E+00
S  1 1.00
2.556110000000E-01 1.000000000000E+00
S  1 1.00
8.450000000000E-02 1.000000000000E+00
P  3 1.00
4.211750000000E+01 3.651140000000E-02
9.628370000000E+00 2.371530000000E-01
2.853320000000E+00 8.197020000000E-01
P  1 1.00
9.056610000000E-01 1.000000000000E+00
P  1 1.00
2.556110000000E-01 1.000000000000E+00
P  1 1.00
8.450000000000E-02 1.000000000000E+00
D  1 1.00
2.584000000000E+00 1.000000000000E+00
D  1 1.00
6.460000000000E-01 1.000000000000E+00
F  1 1.00
1.400000000000E+00 1.000000000000E+00
****
$end

--------------------------------------------------------------

   29    -272.1846199192      6.14E-09 Convergence criterion met
 Total energy in the final basis set = -272.1846199192
   19    -272.1845184589      3.95E-09 Convergence criterion met
 Total energy in the final basis set = -272.1845184589
   18    -272.1847472326      7.87E-09 Convergence criterion met
 Total energy in the final basis set = -272.1847472326
   18    -272.1849839946      6.68E-09 Convergence criterion met
 Total energy in the final basis set = -272.1849839946
   18    -272.1856035760      5.88E-09 Convergence criterion met
 Total energy in the final basis set = -272.1856035760
   18    -272.1867797284      5.80E-09 Convergence criterion met
 Total energy in the final basis set = -272.1867797284
   18    -272.1860402269      6.30E-09 Convergence criterion met
 Total energy in the final basis set = -272.1860402269
   18    -272.1858705076      7.63E-09 Convergence criterion met
 **  OPTIMIZATION CONVERGED  **
 Total job time:  63724.37s(wall), 63573.37s(cpu)
        *  Thank you very much for using Q-Chem.  Have a nice day.  *
 Q-Chem 4.2, Q-Chem, Inc., Pleasanton, CA (2014).
 Q-Chem 4.2.0 for Intel X86 Linux

User input:
--------------------------------------------------------------

$molecule
READ
$end

$rem
JOBTYPE Freq
iprint 10000000
XC_GRID 000075000434
EXCHANGE M08SO
BASIS gen
GUI=2
SCF_GUESS READ
$end

$basis
H  0
S  3 1.00
3.386500000000E+01 2.549380000000E-02
5.094790000000E+00 1.903730000000E-01
1.158790000000E+00 8.521610000000E-01
S  1 1.00
3.258400000000E-01 1.000000000000E+00
S  1 1.00
1.027410000000E-01 1.000000000000E+00
S  1 1.00
3.600000000000E-02 1.000000000000E+00
P  1 1.00
1.500000000000E+00 1.000000000000E+00
P  1 1.00
3.750000000000E-01 1.000000000000E+00
****
C 0
S  6 1.00
4.563240000000E+03 1.966650000000E-03
6.820240000000E+02 1.523060000000E-02
1.549730000000E+02 7.612690000000E-02
4.445530000000E+01 2.608010000000E-01
1.302900000000E+01 6.164620000000E-01
1.827730000000E+00 2.210060000000E-01
S  3 1.00
2.096420000000E+01 1.146600000000E-01
4.803310000000E+00 9.199990000000E-01
1.459330000000E+00 -3.030680000000E-03
S  1 1.00
4.834560000000E-01 1.000000000000E+00
S  1 1.00
1.455850000000E-01 1.000000000000E+00
S  1 1.00
4.380000000000E-02 1.000000000000E+00
P  3 1.00
2.096420000000E+01 4.024870000000E-02
4.803310000000E+00 2.375940000000E-01
1.459330000000E+00 8.158540000000E-01
P  1 1.00
4.834560000000E-01 1.000000000000E+00
P  1 1.00
1.455850000000E-01 1.000000000000E+00
P  1 1.00
4.380000000000E-02 1.000000000000E+00
D  1 1.00
1.252000000000E+00 1.000000000000E+00
D  1 1.00
3.130000000000E-01 1.000000000000E+00
F  1 1.00
8.000000000000E-01 1.000000000000E+00
****
O  0
S  6 1.00
8.588500000000E+03 1.895150000000E-03
1.297230000000E+03 1.438590000000E-02
2.992960000000E+02 7.073200000000E-02
8.737710000000E+01 2.400010000000E-01
2.567890000000E+01 5.947970000000E-01
3.740040000000E+00 2.808020000000E-01
S  3 1.00
4.211750000000E+01 1.138890000000E-01
9.628370000000E+00 9.208110000000E-01
2.853320000000E+00 -3.274470000000E-03
S  1 1.00
9.056610000000E-01 1.000000000000E+00
S  1 1.00
2.556110000000E-01 1.000000000000E+00
S  1 1.00
8.450000000000E-02 1.000000000000E+00
P  3 1.00
4.211750000000E+01 3.651140000000E-02
9.628370000000E+00 2.371530000000E-01
2.853320000000E+00 8.197020000000E-01
P  1 1.00
9.056610000000E-01 1.000000000000E+00
P  1 1.00
2.556110000000E-01 1.000000000000E+00
P  1 1.00
8.450000000000E-02 1.000000000000E+00
D  1 1.00
2.584000000000E+00 1.000000000000E+00
D  1 1.00
6.460000000000E-01 1.000000000000E+00
F  1 1.00
1.400000000000E+00 1.000000000000E+00
****
--------------------------------------------------------------

 Total energy in the final basis set = -272.1857896897
    7    -272.1857897409      7.15E-09 Convergence criterion met
 Total energy in the final basis set = -272.1857897409
    7    -272.1857893414      9.99E-09 Convergence criterion met
 Total energy in the final basis set = -272.1857893414
    8    -272.1857893586      8.99E-09 Convergence criterion met
 Total energy in the final basis set = -272.1857893586
    8    -272.1857897559      6.08E-09 Convergence criterion met
 Total energy in the final basis set = -272.1857897559
    8    -272.1857898153      9.15E-09 Convergence criterion met
 Total energy in the final basis set = -272.1857898153
    8    -272.1857897356      8.16E-09 Convergence criterion met
 Total energy in the final basis set = -272.1857897356
    7    -272.1857897597      9.80E-09 Convergence criterion met
 Total energy in the final basis set = -272.1857897597

                    Orbital Energies (a.u.)
 --------------------------------------------------------------

 Alpha MOs
 -- Occupied --
-19.544 -10.574 -10.546 -10.509 -10.496 -10.494  -1.139  -0.909
 -0.834  -0.797  -0.686  -0.659  -0.556  -0.552  -0.535  -0.509
 -0.495  -0.483  -0.475  -0.458  -0.437  -0.431  -0.428  -0.328
 -0.278

 Beta MOs
 -- Occupied --
-19.534 -10.576 -10.534 -10.509 -10.496 -10.494  -1.119  -0.902
 -0.830  -0.796  -0.673  -0.650  -0.548  -0.544  -0.519  -0.501
 -0.490  -0.477  -0.469  -0.454  -0.434  -0.431  -0.390  -0.318

          Ground-State Mulliken Net Atomic Charges

     Atom                 Charge (a.u.)    Spin (a.u.)
  --------------------------------------------------------
      1 C                    -0.680138      -0.028828
      2 C                    -0.194204       0.649725
      3 C                    -0.601560      -0.026629
      4 C                    -0.048032      -0.067774
      5 C                    -0.619355       0.004107
      6 O                    -0.299249       0.368013
      7 H                     0.208380       0.041678
      8 H                     0.247246       0.012934
      9 H                     0.215265       0.002980
     10 H                     0.287801      -0.036754
     11 H                     0.196360       0.006743
     12 H                     0.197031       0.028577
     13 H                     0.226161       0.005730
     14 H                     0.230110       0.027275
     15 H                     0.227946       0.005105
     16 H                     0.195916       0.000958
     17 H                     0.210320       0.006159
  --------------------------------------------------------
  Sum of atomic charges =     0.000000

                    Cartesian Multipole Moments
 -----------------------------------------------------------------
    Charge (ESU x 10^10)
                 0.0000
    Dipole Moment (Debye)
         X      -1.9549      Y      -2.8577      Z       0.4033
       Tot       3.4858
    Quadrupole Moments (Debye-Ang)
        XX     -39.5951     XY      -3.9885     YY     -43.8451
        XZ       1.1467     YZ       0.6619     ZZ     -39.0448

             Standard Nuclear Orientation (Angstroms)
    I     Atom           X                Y                Z
 ----------------------------------------------------------------
    1      C      -1.2664523018    -1.4502076901     0.0960727095
    2      C      -0.8731960109    -0.0948931915    -0.4171871813
    3      C      -1.6656969170     1.0807328226     0.0708925799
    4      C       0.9981708092     0.2935970459     0.3685585262
    5      C       1.7917659567    -0.9253621783    -0.0785809242
    6      O       1.2338207144     1.4136023329    -0.1129833740
    7      H      -2.3277475054    -1.6380327078    -0.1379497539
    8      H      -1.1686250366    -1.5028690074     1.1906017099
    9      H      -0.6796498912    -2.2583877397    -0.3521017566
   10      H      -0.5464944350    -0.0463732260    -1.4581821256
   11      H      -1.7885567657     1.0430870666     1.1627385205
   12      H      -2.6742107205     1.0649989626    -0.3733926340
   13      H      -1.1774453451     2.0229851429    -0.1965788836
   14      H       0.5533061989     0.2246403409     1.3888185777
   15      H       1.8047694231    -0.9901660300    -1.1730721289
   16      H       1.3994746272    -1.8541066817     0.3496781446
   17      H       2.8270645184    -0.7977956345     0.2647730616
 ----------------------------------------------------------------

 Frequency:      -390.50                  55.53                 139.89
 Force Cnst:      0.6455                 0.0050                 0.0135
 Red. Mass:       7.1843                 2.7255                 1.1718
 IR Intens:       14.151                  2.662                  0.494
 Frequency:       163.32                 182.68                 248.66
 Force Cnst:      0.0213                 0.0222                 0.0719
 Red. Mass:       1.3536                 1.1280                 1.9734
 IR Intens:        1.147                  0.059                  3.318
 Frequency:       263.06                 300.75                 338.24
 Force Cnst:      0.1139                 0.0925                 0.1780
 Red. Mass:       2.7925                 1.7357                 2.6410
 IR Intens:        3.639                  0.636                 14.925
 Frequency:       397.43                 489.57                 831.49
 Force Cnst:      0.2437                 0.3707                 0.4321
 Red. Mass:       2.6185                 2.6250                 1.0608
 IR Intens:       13.205                  7.657                  4.464
 Frequency:       861.17                 879.91                 913.54
 Force Cnst:      0.5024                 1.0269                 0.9915
 Red. Mass:       1.1498                 2.2510                 2.0164
 IR Intens:        1.722                  1.939                  2.614
 Frequency:       924.08                 926.65                1017.70
 Force Cnst:      0.5831                 0.6524                 0.8347
 Red. Mass:       1.1590                 1.2895                 1.3679
 IR Intens:        1.851                  0.632                  4.636
 Frequency:      1096.61                1133.38                1140.77
 Force Cnst:      1.4193                 1.2648                 1.4637
 Red. Mass:       2.0032                 1.6711                 1.9089
 IR Intens:       23.919                 24.766                  0.412
 Frequency:      1178.83                1340.25                1350.11
 Force Cnst:      1.4789                 1.3124                 1.3529
 Red. Mass:       1.8062                 1.2401                 1.2598
 IR Intens:        2.024                  7.304                  2.606
 Frequency:      1375.28                1392.91                1398.28
 Force Cnst:      1.4423                 1.4394                 1.7496
 Red. Mass:       1.2943                 1.2592                 1.5188
 IR Intens:       23.418                  8.552                 23.369
 Frequency:      1450.25                1452.89                1454.06
 Force Cnst:      1.3047                 1.3219                 1.3185
 Red. Mass:       1.0529                 1.0629                 1.0584
 IR Intens:        3.411                 16.740                  1.546
 Frequency:      1460.52                1472.34                1476.09
 Force Cnst:      1.3650                 1.3504                 1.3568
 Red. Mass:       1.0861                 1.0573                 1.0570
 IR Intens:       17.590                  4.187                 13.081
 Frequency:      1570.63                2880.44                2951.15
 Force Cnst:      7.7416                 5.2819                 5.3551
 Red. Mass:       5.3264                 1.0805                 1.0436
 IR Intens:       77.410                 73.893                 13.449
 Frequency:      2961.32                2986.03                3006.24
 Force Cnst:      5.3839                 5.4398                 5.8242
 Red. Mass:       1.0420                 1.0355                 1.0938
 IR Intens:       23.941                  7.144                 11.671
 Frequency:      3020.03                3055.81                3068.30
 Force Cnst:      5.8835                 6.0494                 6.0888
 Red. Mass:       1.0949                 1.0995                 1.0977
 IR Intens:       12.953                  7.762                 11.148
 Frequency:      3078.20                3082.15                3107.48
 Force Cnst:      6.1338                 6.1723                 6.1998
 Red. Mass:       1.0987                 1.1028                 1.0897
 IR Intens:        2.480                 14.525                 15.860

 STANDARD THERMODYNAMIC QUANTITIES AT   298.15 K  AND     1.00 ATM

   This Molecule has  1 Imaginary Frequencies
   Zero point vibrational energy:       91.312 kcal/mol

   Atom    1 Element C  Has Mass   12.00000
   Atom    2 Element C  Has Mass   12.00000
   Atom    3 Element C  Has Mass   12.00000
   Atom    4 Element C  Has Mass   12.00000
   Atom    5 Element C  Has Mass   12.00000
   Atom    6 Element O  Has Mass   15.99491
   Atom    7 Element H  Has Mass    1.00783
   Atom    8 Element H  Has Mass    1.00783
   Atom    9 Element H  Has Mass    1.00783
   Atom   10 Element H  Has Mass    1.00783
   Atom   11 Element H  Has Mass    1.00783
   Atom   12 Element H  Has Mass    1.00783
   Atom   13 Element H  Has Mass    1.00783
   Atom   14 Element H  Has Mass    1.00783
   Atom   15 Element H  Has Mass    1.00783
   Atom   16 Element H  Has Mass    1.00783
   Atom   17 Element H  Has Mass    1.00783
   Molecular Mass:    87.081040 amu
   Principal axes and moments of inertia in amu*Bohr^2:
                             1           2           3
    Eigenvalues --      415.55105   653.30006   976.44985
          X               0.99557    -0.09375    -0.00664
          Y               0.09378     0.99559     0.00366
          Z               0.00626    -0.00427     0.99997
   Rotational Symmetry Number is   1
   The Molecule is an Asymmetric Top
   Translational Enthalpy:        0.889 kcal/mol
   Rotational Enthalpy:           0.889 kcal/mol
   Vibrational Enthalpy:         94.782 kcal/mol
   gas constant (RT):             0.592 kcal/mol
   Translational Entropy:        39.306  cal/mol.K
   Rotational Entropy:           27.074  cal/mol.K
   Vibrational Entropy:          21.277  cal/mol.K

   Total Enthalpy:               97.152 kcal/mol
   Total Entropy:                87.657  cal/mol.K

 Total job time:  110772.08s(wall), 109973.37s(cpu)
        *  Thank you very much for using Q-Chem.  Have a nice day.  *
