 Q-Chem 4.2, Q-Chem, Inc., Pleasanton, CA (2014).
 Q-Chem 4.2.0 for Intel X86 Linux

User input:
--------------------------------------------------------------
$rem
XC_GRID 000075000434
JOBTYPE opt
EXCHANGE M08SO
SCF_ALGORITHM DIIS_GDM
BASIS gen
GUI=2
UNRESTRICTED TRUE
CORRELATION NONE
$end

$comment
c5h11o-2
$end

$molecule
0 2
C        1.07821       -0.39495       -0.33846
C        2.53589       -0.10631        0.02748
C        3.02133        1.12400       -0.74920
C        2.72762        0.08783        1.54722
C        2.34991       -1.13608        2.37465
O        4.09501        0.39247        1.82794
H        0.94390       -0.41669       -1.42536
H        0.40938        0.37156        0.06793
H        0.75657       -1.36771        0.04537
H        3.15168       -0.95394       -0.30092
H        2.44060        2.01388       -0.48386
H        2.92102        0.96386       -1.82829
H        4.07689        1.33327       -0.54853
H        2.13439        0.94389        1.88871
H        2.96557       -1.99973        2.10010
H        1.29617       -1.40299        2.26115
H        2.53753       -0.94463        3.43719
$end

$basis
H  0
S  3 1.00
3.386500000000E+01 2.549380000000E-02
5.094790000000E+00 1.903730000000E-01
1.158790000000E+00 8.521610000000E-01
S  1 1.00
3.258400000000E-01 1.000000000000E+00
S  1 1.00
1.027410000000E-01 1.000000000000E+00
S  1 1.00
3.600000000000E-02 1.000000000000E+00
P  1 1.00
1.500000000000E+00 1.000000000000E+00
P  1 1.00
3.750000000000E-01 1.000000000000E+00
****
C 0
S  6 1.00
4.563240000000E+03 1.966650000000E-03
6.820240000000E+02 1.523060000000E-02
1.549730000000E+02 7.612690000000E-02
4.445530000000E+01 2.608010000000E-01
1.302900000000E+01 6.164620000000E-01
1.827730000000E+00 2.210060000000E-01
S  3 1.00
2.096420000000E+01 1.146600000000E-01
4.803310000000E+00 9.199990000000E-01
1.459330000000E+00 -3.030680000000E-03
S  1 1.00
4.834560000000E-01 1.000000000000E+00
S  1 1.00
1.455850000000E-01 1.000000000000E+00
S  1 1.00
4.380000000000E-02 1.000000000000E+00
P  3 1.00
2.096420000000E+01 4.024870000000E-02
4.803310000000E+00 2.375940000000E-01
1.459330000000E+00 8.158540000000E-01
P  1 1.00
4.834560000000E-01 1.000000000000E+00
P  1 1.00
1.455850000000E-01 1.000000000000E+00
P  1 1.00
4.380000000000E-02 1.000000000000E+00
D  1 1.00
1.252000000000E+00 1.000000000000E+00
D  1 1.00
3.130000000000E-01 1.000000000000E+00
F  1 1.00
8.000000000000E-01 1.000000000000E+00
****
O  0
S  6 1.00
8.588500000000E+03 1.895150000000E-03
1.297230000000E+03 1.438590000000E-02
2.992960000000E+02 7.073200000000E-02
8.737710000000E+01 2.400010000000E-01
2.567890000000E+01 5.947970000000E-01
3.740040000000E+00 2.808020000000E-01
S  3 1.00
4.211750000000E+01 1.138890000000E-01
9.628370000000E+00 9.208110000000E-01
2.853320000000E+00 -3.274470000000E-03
S  1 1.00
9.056610000000E-01 1.000000000000E+00
S  1 1.00
2.556110000000E-01 1.000000000000E+00
S  1 1.00
8.450000000000E-02 1.000000000000E+00
P  3 1.00
4.211750000000E+01 3.651140000000E-02
9.628370000000E+00 2.371530000000E-01
2.853320000000E+00 8.197020000000E-01
P  1 1.00
9.056610000000E-01 1.000000000000E+00
P  1 1.00
2.556110000000E-01 1.000000000000E+00
P  1 1.00
8.450000000000E-02 1.000000000000E+00
D  1 1.00
2.584000000000E+00 1.000000000000E+00
D  1 1.00
6.460000000000E-01 1.000000000000E+00
F  1 1.00
1.400000000000E+00 1.000000000000E+00
****
$end

--------------------------------------------------------------

   32    -272.1989433271      5.13E-09 Convergence criterion met
 Total energy in the final basis set = -272.1989433271
   22    -272.2014431594      8.02E-09 Convergence criterion met
 Total energy in the final basis set = -272.2014431594
   22    -272.2020630906      2.84E-09 Convergence criterion met
 Total energy in the final basis set = -272.2020630906
   21    -272.2021642462      2.85E-09 Convergence criterion met
 Total energy in the final basis set = -272.2021642462
   20    -272.2021806612      3.70E-09 Convergence criterion met
 Total energy in the final basis set = -272.2021806612
   19    -272.2021840014      5.17E-09 Convergence criterion met
 Total energy in the final basis set = -272.2021840014
   18    -272.2021849561      8.53E-09 Convergence criterion met
 Total energy in the final basis set = -272.2021849561
 Final energy is   -272.202184956085
 **  OPTIMIZATION CONVERGED  **
 Total job time:  12125.31s(wall), 12090.02s(cpu)
        *  Thank you very much for using Q-Chem.  Have a nice day.  *
 Q-Chem 4.2, Q-Chem, Inc., Pleasanton, CA (2014).
 Q-Chem 4.2.0 for Intel X86 Linux

User input:
--------------------------------------------------------------

$molecule
READ
$end

$rem
JOBTYPE Freq
iprint 10000000
XC_GRID 000075000434
EXCHANGE M08SO
BASIS gen
GUI=2
SCF_GUESS READ
$end

$basis
H  0
S  3 1.00
3.386500000000E+01 2.549380000000E-02
5.094790000000E+00 1.903730000000E-01
1.158790000000E+00 8.521610000000E-01
S  1 1.00
3.258400000000E-01 1.000000000000E+00
S  1 1.00
1.027410000000E-01 1.000000000000E+00
S  1 1.00
3.600000000000E-02 1.000000000000E+00
P  1 1.00
1.500000000000E+00 1.000000000000E+00
P  1 1.00
3.750000000000E-01 1.000000000000E+00
****
C 0
S  6 1.00
4.563240000000E+03 1.966650000000E-03
6.820240000000E+02 1.523060000000E-02
1.549730000000E+02 7.612690000000E-02
4.445530000000E+01 2.608010000000E-01
1.302900000000E+01 6.164620000000E-01
1.827730000000E+00 2.210060000000E-01
S  3 1.00
2.096420000000E+01 1.146600000000E-01
4.803310000000E+00 9.199990000000E-01
1.459330000000E+00 -3.030680000000E-03
S  1 1.00
4.834560000000E-01 1.000000000000E+00
S  1 1.00
1.455850000000E-01 1.000000000000E+00
S  1 1.00
4.380000000000E-02 1.000000000000E+00
P  3 1.00
2.096420000000E+01 4.024870000000E-02
4.803310000000E+00 2.375940000000E-01
1.459330000000E+00 8.158540000000E-01
P  1 1.00
4.834560000000E-01 1.000000000000E+00
P  1 1.00
1.455850000000E-01 1.000000000000E+00
P  1 1.00
4.380000000000E-02 1.000000000000E+00
D  1 1.00
1.252000000000E+00 1.000000000000E+00
D  1 1.00
3.130000000000E-01 1.000000000000E+00
F  1 1.00
8.000000000000E-01 1.000000000000E+00
****
O  0
S  6 1.00
8.588500000000E+03 1.895150000000E-03
1.297230000000E+03 1.438590000000E-02
2.992960000000E+02 7.073200000000E-02
8.737710000000E+01 2.400010000000E-01
2.567890000000E+01 5.947970000000E-01
3.740040000000E+00 2.808020000000E-01
S  3 1.00
4.211750000000E+01 1.138890000000E-01
9.628370000000E+00 9.208110000000E-01
2.853320000000E+00 -3.274470000000E-03
S  1 1.00
9.056610000000E-01 1.000000000000E+00
S  1 1.00
2.556110000000E-01 1.000000000000E+00
S  1 1.00
8.450000000000E-02 1.000000000000E+00
P  3 1.00
4.211750000000E+01 3.651140000000E-02
9.628370000000E+00 2.371530000000E-01
2.853320000000E+00 8.197020000000E-01
P  1 1.00
9.056610000000E-01 1.000000000000E+00
P  1 1.00
2.556110000000E-01 1.000000000000E+00
P  1 1.00
8.450000000000E-02 1.000000000000E+00
D  1 1.00
2.584000000000E+00 1.000000000000E+00
D  1 1.00
6.460000000000E-01 1.000000000000E+00
F  1 1.00
1.400000000000E+00 1.000000000000E+00
****
--------------------------------------------------------------

 Total energy in the final basis set = -272.2021815440
   12    -272.2021815584      8.05E-09 Convergence criterion met
 Total energy in the final basis set = -272.2021815584
   10    -272.2021811705      9.22E-09 Convergence criterion met
 Total energy in the final basis set = -272.2021811705
    8    -272.2021812262      5.02E-09 Convergence criterion met
 Total energy in the final basis set = -272.2021812262
    7    -272.2021815346      7.16E-09 Convergence criterion met
 Total energy in the final basis set = -272.2021815346
    7    -272.2021816161      9.72E-09 Convergence criterion met
 Total energy in the final basis set = -272.2021816161
    7    -272.2021815210      6.55E-09 Convergence criterion met
 Total energy in the final basis set = -272.2021815210
    7    -272.2021815367      6.49E-09 Convergence criterion met
 Total energy in the final basis set = -272.2021815367

                    Orbital Energies (a.u.)
 --------------------------------------------------------------

 Alpha MOs
 -- Occupied --
-19.608 -10.555 -10.510 -10.506 -10.493 -10.486  -1.148  -0.910
 -0.838  -0.780  -0.718  -0.654  -0.573  -0.551  -0.530  -0.524
 -0.482  -0.469  -0.463  -0.456  -0.438  -0.415  -0.408  -0.381
 -0.357

 Beta MOs
 -- Occupied --
-19.583 -10.556 -10.507 -10.506 -10.493 -10.486  -1.096  -0.904
 -0.827  -0.779  -0.711  -0.649  -0.548  -0.544  -0.520  -0.502
 -0.470  -0.465  -0.454  -0.451  -0.420  -0.406  -0.401  -0.340

          Ground-State Mulliken Net Atomic Charges

     Atom                 Charge (a.u.)    Spin (a.u.)
  --------------------------------------------------------
      1 C                    -0.680273      -0.004109
      2 C                    -0.090664       0.030013
      3 C                    -0.636017       0.005510
      4 C                    -0.273874      -0.056286
      5 C                    -0.664518       0.077201
      6 O                    -0.117616       0.890896
      7 H                     0.206768       0.001980
      8 H                     0.225393       0.000002
      9 H                     0.190141      -0.000584
     10 H                     0.277725       0.001828
     11 H                     0.206019      -0.000022
     12 H                     0.197518      -0.001246
     13 H                     0.208255       0.001326
     14 H                     0.300207       0.037399
     15 H                     0.225657      -0.003857
     16 H                     0.206738       0.020669
     17 H                     0.218541      -0.000720
  --------------------------------------------------------
  Sum of atomic charges =     0.000000

                    Cartesian Multipole Moments
 -----------------------------------------------------------------
    Charge (ESU x 10^10)
                 0.0000
    Dipole Moment (Debye)
         X      -0.7344      Y      -2.0356      Z       0.2733
       Tot       2.1812
    Quadrupole Moments (Debye-Ang)
        XX     -40.1447     XY      -3.4476     YY     -42.8267
        XZ       0.4701     YZ       0.4429     ZZ     -39.4138

             Standard Nuclear Orientation (Angstroms)
    I     Atom           X                Y                Z
 ----------------------------------------------------------------
    1      C      -1.2484359146    -1.4177827421     0.0835327868
    2      C      -0.6637090033    -0.0679359285    -0.3411997182
    3      C      -1.6164231830     1.0749608601     0.0239186133
    4      C       0.7005012485     0.1827490585     0.3251561374
    5      C       1.7666699337    -0.8658650366    -0.0896674210
    6      O       1.2526582970     1.3796494291    -0.0521269407
    7      H      -2.2734257042    -1.5277216241    -0.2927540834
    8      H      -1.2899656393    -1.4890165169     1.1810837340
    9      H      -0.6619811266    -2.2651309904    -0.2921092543
   10      H      -0.4931518789    -0.0606285646    -1.4296082091
   11      H      -1.7982180160     1.0866195883     1.1090798196
   12      H      -2.5847865282     0.9561343078    -0.4779691338
   13      H      -1.1921214715     2.0452612886    -0.2623931157
   14      H       0.5958305514     0.1353887598     1.4299289850
   15      H       1.8457770085    -0.8991537897    -1.1821576949
   16      H       1.4582750782    -1.8472042981     0.2868864914
   17      H       2.7408828625    -0.6085008613     0.3365855966
 ----------------------------------------------------------------

 Frequency:        77.93                 189.68                 194.95
 Force Cnst:      0.0094                 0.0245                 0.0338
 Red. Mass:       2.6384                 1.1543                 1.5113
 IR Intens:        1.844                  0.247                  0.976
 Frequency:       238.50                 251.59                 324.29
 Force Cnst:      0.0362                 0.0663                 0.1430
 Red. Mass:       1.0797                 1.7779                 2.3085
 IR Intens:        0.167                  1.748                  0.115
 Frequency:       335.33                 378.79                 449.65
 Force Cnst:      0.1386                 0.2228                 0.4019
 Red. Mass:       2.0924                 2.6351                 3.3736
 IR Intens:        0.576                  1.744                  5.284
 Frequency:       476.29                 776.99                 894.44
 Force Cnst:      0.3983                 0.7924                 0.7576
 Red. Mass:       2.9803                 2.2278                 1.6074
 IR Intens:        1.028                  0.363                  1.090
 Frequency:       908.85                 914.20                 952.22
 Force Cnst:      1.0234                 0.6139                 0.7740
 Red. Mass:       2.1030                 1.2468                 1.4488
 IR Intens:        1.772                  2.903                  1.668
 Frequency:       972.56                1005.34                1093.99
 Force Cnst:      0.7008                 1.5581                 1.2997
 Red. Mass:       1.2574                 2.6165                 1.8432
 IR Intens:        4.004                  1.188                 19.560
 Frequency:      1135.22                1160.21                1177.12
 Force Cnst:      1.6480                 1.6269                 1.3757
 Red. Mass:       2.1704                 2.0513                 1.6851
 IR Intens:        3.320                  4.309                  1.723
 Frequency:      1251.74                1275.83                1329.94
 Force Cnst:      1.1683                 1.3905                 1.4910
 Red. Mass:       1.2656                 1.4499                 1.4308
 IR Intens:        8.602                  2.697                  0.615
 Frequency:      1354.09                1363.03                1383.78
 Force Cnst:      1.6392                 1.3944                 1.4948
 Red. Mass:       1.5173                 1.2739                 1.3250
 IR Intens:        3.169                  7.869                 11.031
 Frequency:      1399.15                1457.28                1463.93
 Force Cnst:      1.4487                 1.3158                 1.3269
 Red. Mass:       1.2560                 1.0516                 1.0509
 IR Intens:        8.301                  9.414                  1.016
 Frequency:      1471.48                1476.21                1481.40
 Force Cnst:      1.3457                 1.3434                 1.3772
 Red. Mass:       1.0548                 1.0463                 1.0651
 IR Intens:        1.292                 12.953                  3.993
 Frequency:      1491.46                2901.71                2966.93
 Force Cnst:      1.3726                 5.3449                 5.3974
 Red. Mass:       1.0473                 1.0774                 1.0407
 IR Intens:        9.872                 25.340                 15.088
 Frequency:      2969.90                2980.65                2998.09
 Force Cnst:      5.4119                 5.6393                 5.4678
 Red. Mass:       1.0414                 1.0773                 1.0325
 IR Intens:       13.744                 25.069                 10.202
 Frequency:      3035.49                3040.95                3051.86
 Force Cnst:      5.9622                 5.9864                 6.0449
 Red. Mass:       1.0982                 1.0987                 1.1016
 IR Intens:       11.103                 39.135                 24.625
 Frequency:      3057.70                3082.65                3089.78
 Force Cnst:      6.0735                 6.1768                 6.2043
 Red. Mass:       1.1026                 1.1032                 1.1030
 IR Intens:       17.518                 10.717                  7.873

 STANDARD THERMODYNAMIC QUANTITIES AT   298.15 K  AND     1.00 ATM

   This Molecule has  0 Imaginary Frequencies
   Zero point vibrational energy:       93.327 kcal/mol

   Atom    1 Element C  Has Mass   12.00000
   Atom    2 Element C  Has Mass   12.00000
   Atom    3 Element C  Has Mass   12.00000
   Atom    4 Element C  Has Mass   12.00000
   Atom    5 Element C  Has Mass   12.00000
   Atom    6 Element O  Has Mass   15.99491
   Atom    7 Element H  Has Mass    1.00783
   Atom    8 Element H  Has Mass    1.00783
   Atom    9 Element H  Has Mass    1.00783
   Atom   10 Element H  Has Mass    1.00783
   Atom   11 Element H  Has Mass    1.00783
   Atom   12 Element H  Has Mass    1.00783
   Atom   13 Element H  Has Mass    1.00783
   Atom   14 Element H  Has Mass    1.00783
   Atom   15 Element H  Has Mass    1.00783
   Atom   16 Element H  Has Mass    1.00783
   Atom   17 Element H  Has Mass    1.00783
   Molecular Mass:    87.081040 amu
   Principal axes and moments of inertia in amu*Bohr^2:
                             1           2           3
    Eigenvalues --      391.33556   601.43892   908.95044
          X               0.99535    -0.09633    -0.00291
          Y               0.09633     0.99535     0.00190
          Z               0.00271    -0.00217     0.99999
   Rotational Symmetry Number is   1
   The Molecule is an Asymmetric Top
   Translational Enthalpy:        0.889 kcal/mol
   Rotational Enthalpy:           0.889 kcal/mol
   Vibrational Enthalpy:         96.507 kcal/mol
   gas constant (RT):             0.592 kcal/mol
   Translational Entropy:        39.306  cal/mol.K
   Rotational Entropy:           26.861  cal/mol.K
   Vibrational Entropy:          18.375  cal/mol.K

   Total Enthalpy:               98.877 kcal/mol
   Total Entropy:                84.542  cal/mol.K

 Total job time:  73927.82s(wall), 73407.50s(cpu)
        *  Thank you very much for using Q-Chem.  Have a nice day.  *
