 Q-Chem 4.2, Q-Chem, Inc., Pleasanton, CA (2014).
 Q-Chem 4.2.0 for Intel X86 Linux

User input:
--------------------------------------------------------------
$rem
SCF_ALGORITHM DIIS_GDM
max_scf_cycles = 100
incdft false
varthresh false
SCF_CONVERGENCE =  5
THRESH = 10
JOBTYPE pes_scan
EXCHANGE M062X
BASIS gen
GUI=2
UNRESTRICTED TRUE
CORRELATION NONE
$end

$scan
tors 14 13 16 17 -180 180 15
$end

$comment
c5h11o-1
$end

$molecule
READ c5h11o-5MG3S.out
$end

$basis
H  0
S  3 1.00
3.386500000000E+01 2.549380000000E-02
5.094790000000E+00 1.903730000000E-01
1.158790000000E+00 8.521610000000E-01
S  1 1.00
3.258400000000E-01 1.000000000000E+00
S  1 1.00
1.027410000000E-01 1.000000000000E+00
S  1 1.00
3.600000000000E-02 1.000000000000E+00
P  1 1.00
1.500000000000E+00 1.000000000000E+00
P  1 1.00
3.750000000000E-01 1.000000000000E+00
****
C 0
S  6 1.00
4.563240000000E+03 1.966650000000E-03
6.820240000000E+02 1.523060000000E-02
1.549730000000E+02 7.612690000000E-02
4.445530000000E+01 2.608010000000E-01
1.302900000000E+01 6.164620000000E-01
1.827730000000E+00 2.210060000000E-01
S  3 1.00
2.096420000000E+01 1.146600000000E-01
4.803310000000E+00 9.199990000000E-01
1.459330000000E+00 -3.030680000000E-03
S  1 1.00
4.834560000000E-01 1.000000000000E+00
S  1 1.00
1.455850000000E-01 1.000000000000E+00
S  1 1.00
4.380000000000E-02 1.000000000000E+00
P  3 1.00
2.096420000000E+01 4.024870000000E-02
4.803310000000E+00 2.375940000000E-01
1.459330000000E+00 8.158540000000E-01
P  1 1.00
4.834560000000E-01 1.000000000000E+00
P  1 1.00
1.455850000000E-01 1.000000000000E+00
P  1 1.00
4.380000000000E-02 1.000000000000E+00
D  1 1.00
1.252000000000E+00 1.000000000000E+00
D  1 1.00
3.130000000000E-01 1.000000000000E+00
F  1 1.00
8.000000000000E-01 1.000000000000E+00
****
O  0
S  6 1.00
8.588500000000E+03 1.895150000000E-03
1.297230000000E+03 1.438590000000E-02
2.992960000000E+02 7.073200000000E-02
8.737710000000E+01 2.400010000000E-01
2.567890000000E+01 5.947970000000E-01
3.740040000000E+00 2.808020000000E-01
S  3 1.00
4.211750000000E+01 1.138890000000E-01
9.628370000000E+00 9.208110000000E-01
2.853320000000E+00 -3.274470000000E-03
S  1 1.00
9.056610000000E-01 1.000000000000E+00
S  1 1.00
2.556110000000E-01 1.000000000000E+00
S  1 1.00
8.450000000000E-02 1.000000000000E+00
P  3 1.00
4.211750000000E+01 3.651140000000E-02
9.628370000000E+00 2.371530000000E-01
2.853320000000E+00 8.197020000000E-01
P  1 1.00
9.056610000000E-01 1.000000000000E+00
P  1 1.00
2.556110000000E-01 1.000000000000E+00
P  1 1.00
8.450000000000E-02 1.000000000000E+00
D  1 1.00
2.584000000000E+00 1.000000000000E+00
D  1 1.00
6.460000000000E-01 1.000000000000E+00
F  1 1.00
1.400000000000E+00 1.000000000000E+00
****
$end

--------------------------------------------------------------

   18    -272.2684570645      3.73E-06 Convergence criterion met
 Total energy in the final basis set = -272.2684570645
   18    -272.2685747435      3.71E-06 Convergence criterion met
 Total energy in the final basis set = -272.2685747435
   18    -272.2686891103      3.47E-06 Convergence criterion met
 Total energy in the final basis set = -272.2686891103
   18    -272.2687291324      3.39E-06 Convergence criterion met
 Total energy in the final basis set = -272.2687291324
   18    -272.2687343625      3.37E-06 Convergence criterion met
 Total energy in the final basis set = -272.2687343625
   18    -272.2687376398      3.35E-06 Convergence criterion met
 Total energy in the final basis set = -272.2687376398
   18    -272.2687432885      3.33E-06 Convergence criterion met
 Total energy in the final basis set = -272.2687432885
   18    -272.2687516829      3.31E-06 Convergence criterion met
 **  OPTIMIZATION CONVERGED  **
 **  OPTIMIZATION CONVERGED  **
 **  OPTIMIZATION CONVERGED  **
   18    -272.2687036381      3.33E-06 Convergence criterion met
 Total energy in the final basis set = -272.2687036381
   18    -272.2667731590      3.97E-06 Convergence criterion met
 Total energy in the final basis set = -272.2667731590
   18    -272.2682127411      4.02E-06 Convergence criterion met
 Total energy in the final basis set = -272.2682127411
   18    -272.2689378927      3.90E-06 Convergence criterion met
 Total energy in the final basis set = -272.2689378927
   18    -272.2689698960      3.87E-06 Convergence criterion met
 Total energy in the final basis set = -272.2689698960
   18    -272.2689739479      3.86E-06 Convergence criterion met
 Total energy in the final basis set = -272.2689739479

             Standard Nuclear Orientation (Angstroms)
    I     Atom           X                Y                Z
 ----------------------------------------------------------------
    1      C      -1.0637943799     0.0469443213    -0.3572497502
    2      H      -0.9762451947    -0.0898022924    -1.4436066468
    3      C      -2.0975005781     1.0880514194    -0.0935607502
    4      H      -2.0256262839     2.0655395306    -0.5475386644
    5      H      -2.8750786080     0.9200824330     0.6373400811
    6      C      -1.4665068489    -1.2882560707     0.2689485735
    7      H      -0.7717118457    -2.0875760915     0.0172325518
    8      H      -2.4579301017    -1.5870858285    -0.0713328693
    9      H      -1.4970057404    -1.1978705452     1.3571017340
   10      C       0.3130429062     0.5286130677     0.1380571722
   11      H       0.5332035192     1.5036081303    -0.3000542198
   12      H       0.2662360870     0.6677800402     1.2239458815
   13      C       1.4558939036    -0.4135634389    -0.2111179419
   14      H       1.4519347590    -0.6143466976    -1.2837174356
   15      H       1.3461832585    -1.3719222329     0.3037122790
   16      O       2.7224115442     0.1521632774     0.0694938152
   17      H       2.7729993207     0.3468796914     1.0075914648
 ----------------------------------------------------------------

   18    -272.2689746907      3.86E-06 Convergence criterion met
 Total energy in the final basis set = -272.2689746907

                    Orbital Energies (a.u.)
 --------------------------------------------------------------

 Alpha MOs
 -- Occupied --
-19.621 -10.581 -10.550 -10.542 -10.535 -10.529  -1.145  -0.923
 -0.825  -0.776  -0.718  -0.650  -0.586  -0.552  -0.524  -0.515
 -0.491  -0.469  -0.447  -0.425  -0.410  -0.403  -0.388  -0.350
 -0.261

 Beta MOs
 -- Occupied --
-19.621 -10.581 -10.550 -10.535 -10.534 -10.528  -1.145  -0.915
 -0.819  -0.760  -0.706  -0.640  -0.586  -0.547  -0.518  -0.510
 -0.488  -0.467  -0.444  -0.420  -0.403  -0.399  -0.386  -0.347

          Ground-State Mulliken Net Atomic Charges

     Atom                 Charge (a.u.)    Spin (a.u.)
  --------------------------------------------------------
      1 C                     0.139804      -0.034052
      2 H                     0.174634       0.028362
      3 C                    -0.554738       1.036540
      4 H                     0.181330      -0.034899
      5 H                     0.187235      -0.036159
      6 C                    -0.601910       0.020153
      7 H                     0.143483      -0.000259
      8 H                     0.153676      -0.003658
      9 H                     0.158914      -0.002199
     10 C                    -0.278475       0.025888
     11 H                     0.184083      -0.004980
     12 H                     0.166910       0.004603
     13 C                    -0.313399       0.003408
     14 H                     0.166440      -0.000514
     15 H                     0.163013      -0.003252
     16 O                    -0.321338       0.001576
     17 H                     0.250339      -0.000557
  --------------------------------------------------------
  Sum of atomic charges =     0.000000

                    Cartesian Multipole Moments
 -----------------------------------------------------------------
    Charge (ESU x 10^10)
                 0.0000
    Dipole Moment (Debye)
         X      -1.1575      Y      -0.3354      Z       1.0173
       Tot       1.5771
    Quadrupole Moments (Debye-Ang)
        XX     -46.6268     XY      -0.0714     YY     -39.7566
        XZ       3.1027     YZ       0.3020     ZZ     -37.5708

 Final energy is   -272.268974690660
 **  OPTIMIZATION CONVERGED  **
 Total job time:  42802.66s(wall), 42028.00s(cpu)
        *  Thank you very much for using Q-Chem.  Have a nice day.  *
