 Q-Chem 4.2, Q-Chem, Inc., Pleasanton, CA (2014).
 Q-Chem 4.2.0 for Intel X86 Linux

User input:
--------------------------------------------------------------
$rem
XC_GRID 000075000434
JOBTYPE ts
EXCHANGE M08SO
incdft false
varthresh false
BASIS gen
GUI=2
UNRESTRICTED TRUE
CORRELATION NONE
$end

$comment
c5h11o-2
$end

$molecule
0 2
C  1.837057 -0.904513 -0.635932
C  1.350720  0.035401  0.425752
C  1.137242  1.469540  0.039745
C -0.748339 -0.704779  0.928915
C -1.576184 -0.610742 -0.147853
O -2.240165  0.519606 -0.537128
H  1.760924 -0.126565  1.420944
H  1.172936 -0.892245 -1.507847
H  2.839468 -0.626314 -0.997275
H  1.899447 -1.934561 -0.273627
H  0.454556  1.552571 -0.813427
H  0.726452  2.059356  0.865491
H  2.078605  1.955791 -0.261387
H -0.802271  0.035730  1.721247
H -0.394763 -1.685691  1.217724
H -1.699394 -1.403357 -0.874575
H -2.117612  1.198985  0.136001
$end

$basis
H  0
S  3 1.00
3.386500000000E+01 2.549380000000E-02
5.094790000000E+00 1.903730000000E-01
1.158790000000E+00 8.521610000000E-01
S  1 1.00
3.258400000000E-01 1.000000000000E+00
S  1 1.00
1.027410000000E-01 1.000000000000E+00
S  1 1.00
3.600000000000E-02 1.000000000000E+00
P  1 1.00
1.500000000000E+00 1.000000000000E+00
P  1 1.00
3.750000000000E-01 1.000000000000E+00
****
C 0
S  6 1.00
4.563240000000E+03 1.966650000000E-03
6.820240000000E+02 1.523060000000E-02
1.549730000000E+02 7.612690000000E-02
4.445530000000E+01 2.608010000000E-01
1.302900000000E+01 6.164620000000E-01
1.827730000000E+00 2.210060000000E-01
S  3 1.00
2.096420000000E+01 1.146600000000E-01
4.803310000000E+00 9.199990000000E-01
1.459330000000E+00 -3.030680000000E-03
S  1 1.00
4.834560000000E-01 1.000000000000E+00
S  1 1.00
1.455850000000E-01 1.000000000000E+00
S  1 1.00
4.380000000000E-02 1.000000000000E+00
P  3 1.00
2.096420000000E+01 4.024870000000E-02
4.803310000000E+00 2.375940000000E-01
1.459330000000E+00 8.158540000000E-01
P  1 1.00
4.834560000000E-01 1.000000000000E+00
P  1 1.00
1.455850000000E-01 1.000000000000E+00
P  1 1.00
4.380000000000E-02 1.000000000000E+00
D  1 1.00
1.252000000000E+00 1.000000000000E+00
D  1 1.00
3.130000000000E-01 1.000000000000E+00
F  1 1.00
8.000000000000E-01 1.000000000000E+00
****
O  0
S  6 1.00
8.588500000000E+03 1.895150000000E-03
1.297230000000E+03 1.438590000000E-02
2.992960000000E+02 7.073200000000E-02
8.737710000000E+01 2.400010000000E-01
2.567890000000E+01 5.947970000000E-01
3.740040000000E+00 2.808020000000E-01
S  3 1.00
4.211750000000E+01 1.138890000000E-01
9.628370000000E+00 9.208110000000E-01
2.853320000000E+00 -3.274470000000E-03
S  1 1.00
9.056610000000E-01 1.000000000000E+00
S  1 1.00
2.556110000000E-01 1.000000000000E+00
S  1 1.00
8.450000000000E-02 1.000000000000E+00
P  3 1.00
4.211750000000E+01 3.651140000000E-02
9.628370000000E+00 2.371530000000E-01
2.853320000000E+00 8.197020000000E-01
P  1 1.00
9.056610000000E-01 1.000000000000E+00
P  1 1.00
2.556110000000E-01 1.000000000000E+00
P  1 1.00
8.450000000000E-02 1.000000000000E+00
D  1 1.00
2.584000000000E+00 1.000000000000E+00
D  1 1.00
6.460000000000E-01 1.000000000000E+00
F  1 1.00
1.400000000000E+00 1.000000000000E+00
****
$end

--------------------------------------------------------------

   21    -272.1661596317      8.53E-09 Convergence criterion met
 Total energy in the final basis set = -272.1661596317
   12    -272.1661224969      6.59E-09 Convergence criterion met
 Total energy in the final basis set = -272.1661224969
   13    -272.1661600074      6.29E-09 Convergence criterion met
 Total energy in the final basis set = -272.1661600074
   13    -272.1661890523      7.06E-09 Convergence criterion met
 Total energy in the final basis set = -272.1661890523
   12    -272.1661936365      6.81E-09 Convergence criterion met
 Total energy in the final basis set = -272.1661936365
   13    -272.1661885097      8.99E-09 Convergence criterion met
 Total energy in the final basis set = -272.1661885097
   14    -272.1662098576      3.17E-09 Convergence criterion met
 Total energy in the final basis set = -272.1662098576
   12    -272.1664585872      8.73E-09 Convergence criterion met
 **  OPTIMIZATION CONVERGED  **
 Total job time:  20172.00s(wall), 20003.66s(cpu)
        *  Thank you very much for using Q-Chem.  Have a nice day.  *
 Q-Chem 4.2, Q-Chem, Inc., Pleasanton, CA (2014).
 Q-Chem 4.2.0 for Intel X86 Linux

User input:
--------------------------------------------------------------

$molecule
READ
$end

$rem
JOBTYPE Freq
XC_GRID 000075000434
EXCHANGE M08SO
BASIS gen
GUI=2
SCF_GUESS READ
$end

$basis
H  0
S  3 1.00
3.386500000000E+01 2.549380000000E-02
5.094790000000E+00 1.903730000000E-01
1.158790000000E+00 8.521610000000E-01
S  1 1.00
3.258400000000E-01 1.000000000000E+00
S  1 1.00
1.027410000000E-01 1.000000000000E+00
S  1 1.00
3.600000000000E-02 1.000000000000E+00
P  1 1.00
1.500000000000E+00 1.000000000000E+00
P  1 1.00
3.750000000000E-01 1.000000000000E+00
****
C 0
S  6 1.00
4.563240000000E+03 1.966650000000E-03
6.820240000000E+02 1.523060000000E-02
1.549730000000E+02 7.612690000000E-02
4.445530000000E+01 2.608010000000E-01
1.302900000000E+01 6.164620000000E-01
1.827730000000E+00 2.210060000000E-01
S  3 1.00
2.096420000000E+01 1.146600000000E-01
4.803310000000E+00 9.199990000000E-01
1.459330000000E+00 -3.030680000000E-03
S  1 1.00
4.834560000000E-01 1.000000000000E+00
S  1 1.00
1.455850000000E-01 1.000000000000E+00
S  1 1.00
4.380000000000E-02 1.000000000000E+00
P  3 1.00
2.096420000000E+01 4.024870000000E-02
4.803310000000E+00 2.375940000000E-01
1.459330000000E+00 8.158540000000E-01
P  1 1.00
4.834560000000E-01 1.000000000000E+00
P  1 1.00
1.455850000000E-01 1.000000000000E+00
P  1 1.00
4.380000000000E-02 1.000000000000E+00
D  1 1.00
1.252000000000E+00 1.000000000000E+00
D  1 1.00
3.130000000000E-01 1.000000000000E+00
F  1 1.00
8.000000000000E-01 1.000000000000E+00
****
O  0
S  6 1.00
8.588500000000E+03 1.895150000000E-03
1.297230000000E+03 1.438590000000E-02
2.992960000000E+02 7.073200000000E-02
8.737710000000E+01 2.400010000000E-01
2.567890000000E+01 5.947970000000E-01
3.740040000000E+00 2.808020000000E-01
S  3 1.00
4.211750000000E+01 1.138890000000E-01
9.628370000000E+00 9.208110000000E-01
2.853320000000E+00 -3.274470000000E-03
S  1 1.00
9.056610000000E-01 1.000000000000E+00
S  1 1.00
2.556110000000E-01 1.000000000000E+00
S  1 1.00
8.450000000000E-02 1.000000000000E+00
P  3 1.00
4.211750000000E+01 3.651140000000E-02
9.628370000000E+00 2.371530000000E-01
2.853320000000E+00 8.197020000000E-01
P  1 1.00
9.056610000000E-01 1.000000000000E+00
P  1 1.00
2.556110000000E-01 1.000000000000E+00
P  1 1.00
8.450000000000E-02 1.000000000000E+00
D  1 1.00
2.584000000000E+00 1.000000000000E+00
D  1 1.00
6.460000000000E-01 1.000000000000E+00
F  1 1.00
1.400000000000E+00 1.000000000000E+00
****
--------------------------------------------------------------

 Total energy in the final basis set = -272.1671062800
    8    -272.1671062753      6.61E-09 Convergence criterion met
 Total energy in the final basis set = -272.1671062753
    8    -272.1671064565      3.67E-09 Convergence criterion met
 Total energy in the final basis set = -272.1671064565
    8    -272.1671066677      3.83E-09 Convergence criterion met
 Total energy in the final basis set = -272.1671066677
    7    -272.1671061096      9.47E-09 Convergence criterion met
 Total energy in the final basis set = -272.1671061096
    8    -272.1671060530      5.72E-09 Convergence criterion met
 Total energy in the final basis set = -272.1671060530
    7    -272.1671061959      6.53E-09 Convergence criterion met
 Total energy in the final basis set = -272.1671061959
    8    -272.1671060426      4.15E-09 Convergence criterion met
 Total energy in the final basis set = -272.1671060426

                    Orbital Energies (a.u.)
 --------------------------------------------------------------

 Alpha MOs
 -- Occupied --
-19.595 -10.551 -10.508 -10.495 -10.488 -10.485  -1.174  -0.886
 -0.842  -0.780  -0.712  -0.652  -0.575  -0.568  -0.532  -0.514
 -0.485  -0.481  -0.458  -0.449  -0.445  -0.416  -0.409  -0.331
 -0.210

 Beta MOs
 -- Occupied --
-19.593 -10.545 -10.498 -10.493 -10.489 -10.485  -1.168  -0.880
 -0.839  -0.779  -0.707  -0.641  -0.571  -0.565  -0.523  -0.499
 -0.480  -0.464  -0.455  -0.446  -0.442  -0.419  -0.410  -0.304

          Ground-State Mulliken Net Atomic Charges

     Atom                 Charge (a.u.)    Spin (a.u.)
  --------------------------------------------------------
      1 C                    -0.678545      -0.016273
      2 C                    -0.044557       0.716297
      3 C                    -0.781837      -0.037887
      4 C                    -0.479765      -0.195131
      5 C                    -0.226632       0.416687
      6 O                    -0.264908       0.032607
      7 H                     0.260810      -0.034358
      8 H                     0.218512       0.015595
      9 H                     0.188035       0.031684
     10 H                     0.185939       0.004159
     11 H                     0.242111       0.009275
     12 H                     0.209937       0.008142
     13 H                     0.197196       0.036621
     14 H                     0.237468       0.018762
     15 H                     0.218057       0.014832
     16 H                     0.234659      -0.020002
     17 H                     0.283521      -0.001010
  --------------------------------------------------------
  Sum of atomic charges =     0.000000

                    Cartesian Multipole Moments
 -----------------------------------------------------------------
    Charge (ESU x 10^10)
                 0.0000
    Dipole Moment (Debye)
         X      -0.7887      Y       0.2924      Z      -1.0500
       Tot       1.3453
    Quadrupole Moments (Debye-Ang)
        XX     -44.2765     XY       1.2937     YY     -38.0135
        XZ      -1.7601     YZ      -2.0861     ZZ     -40.5005

             Standard Nuclear Orientation (Angstroms)
    I     Atom           X                Y                Z
 ----------------------------------------------------------------
    1      C      -1.8164011037    -0.8558204504     0.6396487826
    2      C      -1.3500095080     0.0730064928    -0.4386544671
    3      C      -1.0062794546     1.4755245358    -0.0371912156
    4      C       0.6945193715    -0.7442629986    -0.9239190896
    5      C       1.4945543743    -0.6340609398     0.1676869007
    6      O       2.1874603744     0.4886025147     0.5132099339
    7      H      -1.7805510125    -0.0647079313    -1.4330161734
    8      H      -1.0883574845    -0.8730020151     1.4663892690
    9      H      -2.7822421705    -0.5366872549     1.0685109112
   10      H      -1.9411973042    -1.8830947277     0.2733635322
   11      H      -0.3138942679     1.4683292278     0.8191794799
   12      H      -0.5378577993     2.0365855616    -0.8585659924
   13      H      -1.8979532796     2.0457965000     0.2771164963
   14      H       0.7688496629    -0.0126707439    -1.7300469758
   15      H       0.2991518047    -1.7229242427    -1.1810956596
   16      H       1.5960884387    -1.4174830587     0.9141435540
   17      H       2.0799783403     1.1647187283    -0.1670833798
 ----------------------------------------------------------------

 Frequency:      -614.60                  46.39                 116.92
 Force Cnst:      1.8743                 0.0037                 0.0292
 Red. Mass:       8.4218                 2.8902                 3.6257
 IR Intens:        2.484                  0.334                  0.220
 Frequency:       171.65                 202.81                 215.44
 Force Cnst:      0.0369                 0.0269                 0.0348
 Red. Mass:       2.1241                 1.1108                 1.2724
 IR Intens:        0.935                  1.329                  0.941
 Frequency:       235.26                 309.09                 380.52
 Force Cnst:      0.0629                 0.1042                 0.1688
 Red. Mass:       1.9304                 1.8517                 1.9785
 IR Intens:        0.331                  9.224                  6.377
 Frequency:       462.35                 479.22                 676.00
 Force Cnst:      0.1649                 0.2680                 0.2855
 Red. Mass:       1.3095                 1.9810                 1.0604
 IR Intens:       80.736                 10.903                  0.296
 Frequency:       737.52                 829.13                 888.99
 Force Cnst:      0.5013                 0.5103                 0.5768
 Red. Mass:       1.5641                 1.2598                 1.2387
 IR Intens:       14.148                 33.536                 33.155
 Frequency:       908.54                 919.76                 942.05
 Force Cnst:      0.9166                 0.5721                 0.6640
 Red. Mass:       1.8847                 1.1479                 1.2699
 IR Intens:       14.794                  0.452                  1.570
 Frequency:       973.23                1064.47                1105.14
 Force Cnst:      0.8143                 1.0043                 1.3508
 Red. Mass:       1.4592                 1.5044                 1.8772
 IR Intens:       15.283                  4.563                202.442
 Frequency:      1143.49                1176.67                1277.75
 Force Cnst:      1.4699                 1.5460                 1.2655
 Red. Mass:       1.9079                 1.8952                 1.3156
 IR Intens:        1.401                  1.384                 16.800
 Frequency:      1316.31                1346.12                1393.84
 Force Cnst:      1.6366                 1.4028                 1.4312
 Red. Mass:       1.6032                 1.3140                 1.2504
 IR Intens:        8.228                  0.334                  8.945
 Frequency:      1400.95                1412.52                1455.37
 Force Cnst:      1.8539                 1.4004                 1.3233
 Red. Mass:       1.6032                 1.1913                 1.0604
 IR Intens:        9.080                 29.308                  0.177
 Frequency:      1465.09                1467.57                1477.14
 Force Cnst:      1.3261                 1.3329                 1.3488
 Red. Mass:       1.0486                 1.0504                 1.0492
 IR Intens:        1.974                  8.726                 10.718
 Frequency:      1581.86                2935.62                2939.39
 Force Cnst:      4.5240                 5.2938                 5.2938
 Red. Mass:       3.0686                 1.0426                 1.0399
 IR Intens:      115.381                 39.411                 48.309
 Frequency:      2987.79                2989.41                3023.45
 Force Cnst:      5.7467                 5.7541                 5.9280
 Red. Mass:       1.0926                 1.0928                 1.1007
 IR Intens:       32.884                  4.755                 22.028
 Frequency:      3034.21                3074.93                3109.43
 Force Cnst:      5.9617                 5.9180                 6.1998
 Red. Mass:       1.0991                 1.0623                 1.0883
 IR Intens:       19.407                  7.345                 27.982
 Frequency:      3148.83                3183.03                3872.23
 Force Cnst:      6.3754                 6.6380                 9.4134
 Red. Mass:       1.0913                 1.1120                 1.0655
 IR Intens:        2.959                  6.752                 46.750

 STANDARD THERMODYNAMIC QUANTITIES AT   298.15 K  AND     1.00 ATM

   This Molecule has  1 Imaginary Frequencies
   Zero point vibrational energy:       91.317 kcal/mol

   Atom    1 Element C  Has Mass   12.00000
   Atom    2 Element C  Has Mass   12.00000
   Atom    3 Element C  Has Mass   12.00000
   Atom    4 Element C  Has Mass   12.00000
   Atom    5 Element C  Has Mass   12.00000
   Atom    6 Element O  Has Mass   15.99491
   Atom    7 Element H  Has Mass    1.00783
   Atom    8 Element H  Has Mass    1.00783
   Atom    9 Element H  Has Mass    1.00783
   Atom   10 Element H  Has Mass    1.00783
   Atom   11 Element H  Has Mass    1.00783
   Atom   12 Element H  Has Mass    1.00783
   Atom   13 Element H  Has Mass    1.00783
   Atom   14 Element H  Has Mass    1.00783
   Atom   15 Element H  Has Mass    1.00783
   Atom   16 Element H  Has Mass    1.00783
   Atom   17 Element H  Has Mass    1.00783
   Molecular Mass:    87.081040 amu
   Principal axes and moments of inertia in amu*Bohr^2:
                             1           2           3
    Eigenvalues --      378.79142   872.10858  1007.08138
          X               0.99981     0.00180    -0.01926
          Y              -0.00265     0.99900    -0.04455
          Z               0.01916     0.04459     0.99882
   Rotational Symmetry Number is   1
   The Molecule is an Asymmetric Top
   Translational Enthalpy:        0.889 kcal/mol
   Rotational Enthalpy:           0.889 kcal/mol
   Vibrational Enthalpy:         94.890 kcal/mol
   gas constant (RT):             0.592 kcal/mol
   Translational Entropy:        39.306  cal/mol.K
   Rotational Entropy:           27.300  cal/mol.K
   Vibrational Entropy:          22.194  cal/mol.K

   Total Enthalpy:               97.260 kcal/mol
   Total Entropy:                88.800  cal/mol.K

 Total job time:  60397.70s(wall), 59898.09s(cpu)
        *  Thank you very much for using Q-Chem.  Have a nice day.  *
