 Q-Chem 4.2, Q-Chem, Inc., Pleasanton, CA (2014).
 Q-Chem 4.2.0 for Intel X86 Linux

User input:
--------------------------------------------------------------
$rem
XC_GRID 000075000434
JOBTYPE ts
EXCHANGE M08SO
BASIS gen
GEOM_OPT_MAX_CYCLES 150
GEOM_OPT_TOL_DISPLACEMENT 3000
GEOM_OPT_TOL_ENERGY 10
SCF_ALGORITHM DIIS_GDM
!   incdft false
!   varthresh false
GUI=2
UNRESTRICTED TRUE
CORRELATION NONE
$end

$comment
c5h11o-2
$end

$molecule
0 2
C          1.03943       -0.04076        0.24374
C          1.21792        1.45068        0.15851
H          2.24306        1.74513        0.41884
H          1.05096        1.82073       -0.86359
H          0.53309        1.97960        0.82381
C          1.90654       -0.86839       -0.66479
H          2.97084       -0.66621       -0.48957
H          1.73974       -1.93844       -0.52279
H          1.72369       -0.63655       -1.72383
C          0.07233       -0.60185        1.02700
H         -0.42575       -0.00392        1.78171
H          0.05552       -1.67576        1.18337
C         -1.91959       -0.65712       -0.08797
H         -2.58816       -1.04751        0.67168
H         -1.66843       -1.32568       -0.90999
O         -2.23581        0.64018       -0.41387
H         -1.64795        0.93182       -1.11762
$end

$basis
H  0
S  3 1.00
3.386500000000E+01 2.549380000000E-02
5.094790000000E+00 1.903730000000E-01
1.158790000000E+00 8.521610000000E-01
S  1 1.00
3.258400000000E-01 1.000000000000E+00
S  1 1.00
1.027410000000E-01 1.000000000000E+00
S  1 1.00
3.600000000000E-02 1.000000000000E+00
P  1 1.00
1.500000000000E+00 1.000000000000E+00
P  1 1.00
3.750000000000E-01 1.000000000000E+00
****
C 0
S  6 1.00
4.563240000000E+03 1.966650000000E-03
6.820240000000E+02 1.523060000000E-02
1.549730000000E+02 7.612690000000E-02
4.445530000000E+01 2.608010000000E-01
1.302900000000E+01 6.164620000000E-01
1.827730000000E+00 2.210060000000E-01
S  3 1.00
2.096420000000E+01 1.146600000000E-01
4.803310000000E+00 9.199990000000E-01
1.459330000000E+00 -3.030680000000E-03
S  1 1.00
4.834560000000E-01 1.000000000000E+00
S  1 1.00
1.455850000000E-01 1.000000000000E+00
S  1 1.00
4.380000000000E-02 1.000000000000E+00
P  3 1.00
2.096420000000E+01 4.024870000000E-02
4.803310000000E+00 2.375940000000E-01
1.459330000000E+00 8.158540000000E-01
P  1 1.00
4.834560000000E-01 1.000000000000E+00
P  1 1.00
1.455850000000E-01 1.000000000000E+00
P  1 1.00
4.380000000000E-02 1.000000000000E+00
D  1 1.00
1.252000000000E+00 1.000000000000E+00
D  1 1.00
3.130000000000E-01 1.000000000000E+00
F  1 1.00
8.000000000000E-01 1.000000000000E+00
****
O  0
S  6 1.00
8.588500000000E+03 1.895150000000E-03
1.297230000000E+03 1.438590000000E-02
2.992960000000E+02 7.073200000000E-02
8.737710000000E+01 2.400010000000E-01
2.567890000000E+01 5.947970000000E-01
3.740040000000E+00 2.808020000000E-01
S  3 1.00
4.211750000000E+01 1.138890000000E-01
9.628370000000E+00 9.208110000000E-01
2.853320000000E+00 -3.274470000000E-03
S  1 1.00
9.056610000000E-01 1.000000000000E+00
S  1 1.00
2.556110000000E-01 1.000000000000E+00
S  1 1.00
8.450000000000E-02 1.000000000000E+00
P  3 1.00
4.211750000000E+01 3.651140000000E-02
9.628370000000E+00 2.371530000000E-01
2.853320000000E+00 8.197020000000E-01
P  1 1.00
9.056610000000E-01 1.000000000000E+00
P  1 1.00
2.556110000000E-01 1.000000000000E+00
P  1 1.00
8.450000000000E-02 1.000000000000E+00
D  1 1.00
2.584000000000E+00 1.000000000000E+00
D  1 1.00
6.460000000000E-01 1.000000000000E+00
F  1 1.00
1.400000000000E+00 1.000000000000E+00
****
$end

--------------------------------------------------------------

   25    -272.1625645418      5.63E-09 Convergence criterion met
 Total energy in the final basis set = -272.1625645418
   17    -272.1624615181      7.18E-09 Convergence criterion met
 Total energy in the final basis set = -272.1624615181
   17    -272.1624381971      6.75E-09 Convergence criterion met
 Total energy in the final basis set = -272.1624381971
   17    -272.1623950928      7.50E-09 Convergence criterion met
 Total energy in the final basis set = -272.1623950928
   17    -272.1623697360      8.32E-09 Convergence criterion met
 Total energy in the final basis set = -272.1623697360
   17    -272.1627871850      7.01E-09 Convergence criterion met
 Total energy in the final basis set = -272.1627871850
   17    -272.1625632075      3.84E-09 Convergence criterion met
 Total energy in the final basis set = -272.1625632075
   17    -272.1626937989      8.47E-09 Convergence criterion met
 **  OPTIMIZATION CONVERGED  **
 Total job time:  26855.74s(wall), 26773.02s(cpu)
        *  Thank you very much for using Q-Chem.  Have a nice day.  *
 Q-Chem 4.2, Q-Chem, Inc., Pleasanton, CA (2014).
 Q-Chem 4.2.0 for Intel X86 Linux

User input:
--------------------------------------------------------------

$molecule
READ
$end

$rem
JOBTYPE Freq
XC_GRID 000075000434
EXCHANGE M08SO
BASIS gen
GUI=2
SCF_GUESS READ
$end

$basis
H  0
S  3 1.00
3.386500000000E+01 2.549380000000E-02
5.094790000000E+00 1.903730000000E-01
1.158790000000E+00 8.521610000000E-01
S  1 1.00
3.258400000000E-01 1.000000000000E+00
S  1 1.00
1.027410000000E-01 1.000000000000E+00
S  1 1.00
3.600000000000E-02 1.000000000000E+00
P  1 1.00
1.500000000000E+00 1.000000000000E+00
P  1 1.00
3.750000000000E-01 1.000000000000E+00
****
C 0
S  6 1.00
4.563240000000E+03 1.966650000000E-03
6.820240000000E+02 1.523060000000E-02
1.549730000000E+02 7.612690000000E-02
4.445530000000E+01 2.608010000000E-01
1.302900000000E+01 6.164620000000E-01
1.827730000000E+00 2.210060000000E-01
S  3 1.00
2.096420000000E+01 1.146600000000E-01
4.803310000000E+00 9.199990000000E-01
1.459330000000E+00 -3.030680000000E-03
S  1 1.00
4.834560000000E-01 1.000000000000E+00
S  1 1.00
1.455850000000E-01 1.000000000000E+00
S  1 1.00
4.380000000000E-02 1.000000000000E+00
P  3 1.00
2.096420000000E+01 4.024870000000E-02
4.803310000000E+00 2.375940000000E-01
1.459330000000E+00 8.158540000000E-01
P  1 1.00
4.834560000000E-01 1.000000000000E+00
P  1 1.00
1.455850000000E-01 1.000000000000E+00
P  1 1.00
4.380000000000E-02 1.000000000000E+00
D  1 1.00
1.252000000000E+00 1.000000000000E+00
D  1 1.00
3.130000000000E-01 1.000000000000E+00
F  1 1.00
8.000000000000E-01 1.000000000000E+00
****
O  0
S  6 1.00
8.588500000000E+03 1.895150000000E-03
1.297230000000E+03 1.438590000000E-02
2.992960000000E+02 7.073200000000E-02
8.737710000000E+01 2.400010000000E-01
2.567890000000E+01 5.947970000000E-01
3.740040000000E+00 2.808020000000E-01
S  3 1.00
4.211750000000E+01 1.138890000000E-01
9.628370000000E+00 9.208110000000E-01
2.853320000000E+00 -3.274470000000E-03
S  1 1.00
9.056610000000E-01 1.000000000000E+00
S  1 1.00
2.556110000000E-01 1.000000000000E+00
S  1 1.00
8.450000000000E-02 1.000000000000E+00
P  3 1.00
4.211750000000E+01 3.651140000000E-02
9.628370000000E+00 2.371530000000E-01
2.853320000000E+00 8.197020000000E-01
P  1 1.00
9.056610000000E-01 1.000000000000E+00
P  1 1.00
2.556110000000E-01 1.000000000000E+00
P  1 1.00
8.450000000000E-02 1.000000000000E+00
D  1 1.00
2.584000000000E+00 1.000000000000E+00
D  1 1.00
6.460000000000E-01 1.000000000000E+00
F  1 1.00
1.400000000000E+00 1.000000000000E+00
****
--------------------------------------------------------------

 Total energy in the final basis set = -272.1634001377
    9    -272.1634005090      6.21E-09 Convergence criterion met
 Total energy in the final basis set = -272.1634005090
    8    -272.1634002262      9.82E-09 Convergence criterion met
 Total energy in the final basis set = -272.1634002262
    8    -272.1634002093      7.74E-09 Convergence criterion met
 Total energy in the final basis set = -272.1634002093
    8    -272.1634007852      5.37E-09 Convergence criterion met
 Total energy in the final basis set = -272.1634007852
    7    -272.1634005017      9.93E-09 Convergence criterion met
 Total energy in the final basis set = -272.1634005017
    7    -272.1634003810      6.02E-09 Convergence criterion met
 Total energy in the final basis set = -272.1634003810
    8    -272.1634005101      5.35E-09 Convergence criterion met
 Total energy in the final basis set = -272.1634005101

                    Orbital Energies (a.u.)
 --------------------------------------------------------------

 Alpha MOs
 -- Occupied --
-19.587 -10.550 -10.503 -10.492 -10.491 -10.491  -1.164  -0.908
 -0.788  -0.784  -0.752  -0.612  -0.602  -0.535  -0.532  -0.518
 -0.516  -0.489  -0.459  -0.442  -0.431  -0.418  -0.406  -0.331
 -0.212

 Beta MOs
 -- Occupied --
-19.585 -10.536 -10.496 -10.494 -10.492 -10.492  -1.156  -0.905
 -0.786  -0.780  -0.740  -0.606  -0.596  -0.530  -0.526  -0.514
 -0.504  -0.468  -0.453  -0.441  -0.432  -0.412  -0.407  -0.304

          Ground-State Mulliken Net Atomic Charges

     Atom                 Charge (a.u.)    Spin (a.u.)
  --------------------------------------------------------
      1 C                     0.991640       0.420574
      2 C                    -0.961885      -0.039779
      3 H                     0.203537       0.024835
      4 H                     0.211672       0.018397
      5 H                     0.236094       0.001260
      6 C                    -0.846772      -0.027296
      7 H                     0.196611       0.016130
      8 H                     0.190163       0.000285
      9 H                     0.185808       0.016962
     10 C                    -1.014788      -0.217411
     11 H                     0.303974       0.014203
     12 H                     0.251768       0.017277
     13 C                    -0.407797       0.737289
     14 H                     0.198271      -0.021361
     15 H                     0.202702      -0.006128
     16 O                    -0.239197       0.041650
     17 H                     0.298197       0.003113
  --------------------------------------------------------
  Sum of atomic charges =     0.000000

                    Cartesian Multipole Moments
 -----------------------------------------------------------------
    Charge (ESU x 10^10)
                 0.0000
    Dipole Moment (Debye)
         X       1.0476      Y      -0.5736      Z      -0.6476
       Tot       1.3586
    Quadrupole Moments (Debye-Ang)
        XX     -44.2311     XY       2.9230     YY     -39.4652
        XZ      -1.8975     YZ      -0.4868     ZZ     -39.2632

             Standard Nuclear Orientation (Angstroms)
    I     Atom           X                Y                Z
 ----------------------------------------------------------------
    1      C       0.9677921208    -0.0607205724     0.2527307710
    2      C       1.1627284914     1.4315440818     0.1994765957
    3      H       2.1856827864     1.7067977014     0.5021724466
    4      H       1.0385122124     1.8216092265    -0.8255645860
    5      H       0.4557374527     1.9537765948     0.8543911633
    6      C       1.8120700643    -0.8779052860    -0.6873075401
    7      H       2.8836711893    -0.6910744893    -0.5176289614
    8      H       1.6279817580    -1.9518407672    -0.5657048598
    9      H       1.6153096653    -0.6125710908    -1.7391986501
   10      C       0.0294020881    -0.6315241678     1.0587190184
   11      H      -0.4667184486    -0.0339381521     1.8227716373
   12      H       0.0053620162    -1.7129342793     1.1930955314
   13      C      -1.9078929497    -0.6235777868    -0.0883029125
   14      H      -2.6633217905    -0.8972380002     0.6459646990
   15      H      -1.6625390640    -1.3592165087    -0.8576305352
   16      O      -2.0168325699     0.6797678593    -0.4844434683
   17      H      -1.2696161073     0.9115892781    -1.0490157341
 ----------------------------------------------------------------

 Frequency:      -576.01                  53.29                 107.40
 Force Cnst:      1.7670                 0.0051                 0.0223
 Red. Mass:       9.0391                 3.0366                 3.2745
 IR Intens:        3.383                  2.896                  0.826
 Frequency:       118.04                 166.11                 189.74
 Force Cnst:      0.0179                 0.0186                 0.0253
 Red. Mass:       2.1809                 1.1448                 1.1950
 IR Intens:        0.644                  2.989                  6.902
 Frequency:       229.56                 344.94                 352.72
 Force Cnst:      0.0546                 0.1014                 0.1505
 Red. Mass:       1.7570                 1.4468                 2.0528
 IR Intens:       11.007                108.420                 12.277
 Frequency:       422.14                 435.34                 550.27
 Force Cnst:      0.2005                 0.2414                 0.2103
 Red. Mass:       1.9101                 2.1615                 1.1790
 IR Intens:        9.568                  0.212                 47.662
 Frequency:       779.04                 814.79                 845.91
 Force Cnst:      0.5398                 0.5399                 0.5567
 Red. Mass:       1.5096                 1.3803                 1.3205
 IR Intens:        1.210                  1.698                  5.608
 Frequency:       950.84                 960.91                 973.36
 Force Cnst:      0.6850                 0.6922                 0.8062
 Red. Mass:       1.2859                 1.2724                 1.4443
 IR Intens:        0.151                  9.242                  0.112
 Frequency:      1016.87                1050.80                1069.21
 Force Cnst:      0.7639                 0.9472                 0.7541
 Red. Mass:       1.2539                 1.4559                 1.1196
 IR Intens:        0.030                 16.177                 58.622
 Frequency:      1073.19                1188.03                1299.27
 Force Cnst:      1.0962                 3.7768                 2.2975
 Red. Mass:       1.6154                 4.5417                 2.3099
 IR Intens:        4.985                119.658                  0.491
 Frequency:      1334.83                1381.33                1396.13
 Force Cnst:      1.3534                 1.3746                 1.7463
 Red. Mass:       1.2892                 1.2228                 1.5206
 IR Intens:       21.304                  0.286                 10.294
 Frequency:      1406.59                1446.91                1462.13
 Force Cnst:      1.5728                 1.2945                 1.3158
 Red. Mass:       1.3493                 1.0494                 1.0446
 IR Intens:        2.423                  0.206                 17.235
 Frequency:      1464.92                1470.07                1476.77
 Force Cnst:      1.3313                 1.4473                 1.3872
 Red. Mass:       1.0529                 1.1366                 1.0796
 IR Intens:        2.301                 12.437                 15.553
 Frequency:      1584.30                2939.89                2949.56
 Force Cnst:      4.3715                 5.3186                 5.3338
 Red. Mass:       2.9560                 1.0444                 1.0406
 IR Intens:        3.674                 35.115                 46.745
 Frequency:      2986.77                2994.47                3054.52
 Force Cnst:      5.7410                 5.7941                 5.7853
 Red. Mass:       1.0923                 1.0967                 1.0524
 IR Intens:       32.339                 17.382                 15.537
 Frequency:      3055.57                3057.29                3068.01
 Force Cnst:      6.0230                 6.0447                 5.8623
 Red. Mass:       1.0949                 1.0976                 1.0571
 IR Intens:       29.379                 13.547                  6.252
 Frequency:      3153.61                3181.28                3859.44
 Force Cnst:      6.5458                 6.6806                 9.3519
 Red. Mass:       1.1171                 1.1204                 1.0656
 IR Intens:        9.427                 13.112                 26.376

 STANDARD THERMODYNAMIC QUANTITIES AT   298.15 K  AND     1.00 ATM

   This Molecule has  1 Imaginary Frequencies
   Zero point vibrational energy:       91.087 kcal/mol

   Atom    1 Element C  Has Mass   12.00000
   Atom    2 Element C  Has Mass   12.00000
   Atom    3 Element H  Has Mass    1.00783
   Atom    4 Element H  Has Mass    1.00783
   Atom    5 Element H  Has Mass    1.00783
   Atom    6 Element C  Has Mass   12.00000
   Atom    7 Element H  Has Mass    1.00783
   Atom    8 Element H  Has Mass    1.00783
   Atom    9 Element H  Has Mass    1.00783
   Atom   10 Element C  Has Mass   12.00000
   Atom   11 Element H  Has Mass    1.00783
   Atom   12 Element H  Has Mass    1.00783
   Atom   13 Element C  Has Mass   12.00000
   Atom   14 Element H  Has Mass    1.00783
   Atom   15 Element H  Has Mass    1.00783
   Atom   16 Element O  Has Mass   15.99491
   Atom   17 Element H  Has Mass    1.00783
   Molecular Mass:    87.081040 amu
   Principal axes and moments of inertia in amu*Bohr^2:
                             1           2           3
    Eigenvalues --      387.01149   870.23428   996.98733
          X               0.99927     0.02881    -0.02507
          Y              -0.02812     0.99923     0.02737
          Z               0.02584    -0.02665     0.99931
   Rotational Symmetry Number is   1
   The Molecule is an Asymmetric Top
   Translational Enthalpy:        0.889 kcal/mol
   Rotational Enthalpy:           0.889 kcal/mol
   Vibrational Enthalpy:         94.855 kcal/mol
   gas constant (RT):             0.592 kcal/mol
   Translational Entropy:        39.306  cal/mol.K
   Rotational Entropy:           27.309  cal/mol.K
   Vibrational Entropy:          23.795  cal/mol.K

   Total Enthalpy:               97.225 kcal/mol
   Total Entropy:                90.410  cal/mol.K

 Total job time:  56056.08s(wall), 55592.81s(cpu)
        *  Thank you very much for using Q-Chem.  Have a nice day.  *
