 Q-Chem 4.2, Q-Chem, Inc., Pleasanton, CA (2014).
 Q-Chem 4.2.0 for Intel X86 Linux

User input:
--------------------------------------------------------------
$rem
XC_GRID 000075000434
JOBTYPE ts
EXCHANGE M08SO
BASIS gen
GEOM_OPT_MAX_CYCLES 150
GEOM_OPT_TOL_DISPLACEMENT 3000
GEOM_OPT_TOL_ENERGY 10
SCF_ALGORITHM DIIS_GDM
!   incdft false
!   varthresh false
GUI=2
UNRESTRICTED TRUE
CORRELATION NONE
$end

$comment
c5h11o-2
$end

$molecule
0 2
C          0.83937        0.03625       -0.30553
H          0.59486       -0.02274       -1.37267
C          2.21371       -0.62536       -0.06617
H          2.21118       -1.67236       -0.38432
H          2.99489       -0.09695       -0.62270
H          2.47725       -0.59262        0.99772
C          0.86460        1.52462        0.10578
H          1.63244        2.06653       -0.45632
H         -0.11002        1.97874       -0.08973
H          1.09572        1.62418        1.17369
C         -0.23439       -0.69498        0.45991
H         -0.11364       -0.71965        1.54545
C         -1.32166       -1.26693       -0.09407
H         -2.05368       -1.79712        0.50545
H         -1.44989       -1.30124       -1.17055
O         -2.39191        0.72219       -0.18559
H         -2.31367        0.91417        0.75920
$end

$basis
H  0
S  3 1.00
3.386500000000E+01 2.549380000000E-02
5.094790000000E+00 1.903730000000E-01
1.158790000000E+00 8.521610000000E-01
S  1 1.00
3.258400000000E-01 1.000000000000E+00
S  1 1.00
1.027410000000E-01 1.000000000000E+00
S  1 1.00
3.600000000000E-02 1.000000000000E+00
P  1 1.00
1.500000000000E+00 1.000000000000E+00
P  1 1.00
3.750000000000E-01 1.000000000000E+00
****
C 0
S  6 1.00
4.563240000000E+03 1.966650000000E-03
6.820240000000E+02 1.523060000000E-02
1.549730000000E+02 7.612690000000E-02
4.445530000000E+01 2.608010000000E-01
1.302900000000E+01 6.164620000000E-01
1.827730000000E+00 2.210060000000E-01
S  3 1.00
2.096420000000E+01 1.146600000000E-01
4.803310000000E+00 9.199990000000E-01
1.459330000000E+00 -3.030680000000E-03
S  1 1.00
4.834560000000E-01 1.000000000000E+00
S  1 1.00
1.455850000000E-01 1.000000000000E+00
S  1 1.00
4.380000000000E-02 1.000000000000E+00
P  3 1.00
2.096420000000E+01 4.024870000000E-02
4.803310000000E+00 2.375940000000E-01
1.459330000000E+00 8.158540000000E-01
P  1 1.00
4.834560000000E-01 1.000000000000E+00
P  1 1.00
1.455850000000E-01 1.000000000000E+00
P  1 1.00
4.380000000000E-02 1.000000000000E+00
D  1 1.00
1.252000000000E+00 1.000000000000E+00
D  1 1.00
3.130000000000E-01 1.000000000000E+00
F  1 1.00
8.000000000000E-01 1.000000000000E+00
****
O  0
S  6 1.00
8.588500000000E+03 1.895150000000E-03
1.297230000000E+03 1.438590000000E-02
2.992960000000E+02 7.073200000000E-02
8.737710000000E+01 2.400010000000E-01
2.567890000000E+01 5.947970000000E-01
3.740040000000E+00 2.808020000000E-01
S  3 1.00
4.211750000000E+01 1.138890000000E-01
9.628370000000E+00 9.208110000000E-01
2.853320000000E+00 -3.274470000000E-03
S  1 1.00
9.056610000000E-01 1.000000000000E+00
S  1 1.00
2.556110000000E-01 1.000000000000E+00
S  1 1.00
8.450000000000E-02 1.000000000000E+00
P  3 1.00
4.211750000000E+01 3.651140000000E-02
9.628370000000E+00 2.371530000000E-01
2.853320000000E+00 8.197020000000E-01
P  1 1.00
9.056610000000E-01 1.000000000000E+00
P  1 1.00
2.556110000000E-01 1.000000000000E+00
P  1 1.00
8.450000000000E-02 1.000000000000E+00
D  1 1.00
2.584000000000E+00 1.000000000000E+00
D  1 1.00
6.460000000000E-01 1.000000000000E+00
F  1 1.00
1.400000000000E+00 1.000000000000E+00
****
$end

--------------------------------------------------------------

   31    -272.1628127255      4.08E-09 Convergence criterion met
 Total energy in the final basis set = -272.1628127255
   20    -272.1627063376      3.50E-09 Convergence criterion met
 Total energy in the final basis set = -272.1627063376
   19    -272.1626027028      7.27E-09 Convergence criterion met
 Total energy in the final basis set = -272.1626027028
   19    -272.1624444854      8.09E-09 Convergence criterion met
 Total energy in the final basis set = -272.1624444854
   19    -272.1622434497      7.87E-09 Convergence criterion met
 Total energy in the final basis set = -272.1622434497
   19    -272.1619962604      8.86E-09 Convergence criterion met
 Total energy in the final basis set = -272.1619962604
   20    -272.1617278015      4.87E-09 Convergence criterion met
 Total energy in the final basis set = -272.1617278015
   20    -272.1614642121      3.25E-09 Convergence criterion met
 **  OPTIMIZATION CONVERGED  **
 Total job time:  218494.19s(wall), 217968.56s(cpu)
        *  Thank you very much for using Q-Chem.  Have a nice day.  *
 Q-Chem 4.2, Q-Chem, Inc., Pleasanton, CA (2014).
 Q-Chem 4.2.0 for Intel X86 Linux

User input:
--------------------------------------------------------------

$molecule
READ
$end

$rem
JOBTYPE Freq
XC_GRID 000075000434
EXCHANGE M08SO
BASIS gen
GUI=2
SCF_GUESS READ
$end

$basis
H  0
S  3 1.00
3.386500000000E+01 2.549380000000E-02
5.094790000000E+00 1.903730000000E-01
1.158790000000E+00 8.521610000000E-01
S  1 1.00
3.258400000000E-01 1.000000000000E+00
S  1 1.00
1.027410000000E-01 1.000000000000E+00
S  1 1.00
3.600000000000E-02 1.000000000000E+00
P  1 1.00
1.500000000000E+00 1.000000000000E+00
P  1 1.00
3.750000000000E-01 1.000000000000E+00
****
C 0
S  6 1.00
4.563240000000E+03 1.966650000000E-03
6.820240000000E+02 1.523060000000E-02
1.549730000000E+02 7.612690000000E-02
4.445530000000E+01 2.608010000000E-01
1.302900000000E+01 6.164620000000E-01
1.827730000000E+00 2.210060000000E-01
S  3 1.00
2.096420000000E+01 1.146600000000E-01
4.803310000000E+00 9.199990000000E-01
1.459330000000E+00 -3.030680000000E-03
S  1 1.00
4.834560000000E-01 1.000000000000E+00
S  1 1.00
1.455850000000E-01 1.000000000000E+00
S  1 1.00
4.380000000000E-02 1.000000000000E+00
P  3 1.00
2.096420000000E+01 4.024870000000E-02
4.803310000000E+00 2.375940000000E-01
1.459330000000E+00 8.158540000000E-01
P  1 1.00
4.834560000000E-01 1.000000000000E+00
P  1 1.00
1.455850000000E-01 1.000000000000E+00
P  1 1.00
4.380000000000E-02 1.000000000000E+00
D  1 1.00
1.252000000000E+00 1.000000000000E+00
D  1 1.00
3.130000000000E-01 1.000000000000E+00
F  1 1.00
8.000000000000E-01 1.000000000000E+00
****
O  0
S  6 1.00
8.588500000000E+03 1.895150000000E-03
1.297230000000E+03 1.438590000000E-02
2.992960000000E+02 7.073200000000E-02
8.737710000000E+01 2.400010000000E-01
2.567890000000E+01 5.947970000000E-01
3.740040000000E+00 2.808020000000E-01
S  3 1.00
4.211750000000E+01 1.138890000000E-01
9.628370000000E+00 9.208110000000E-01
2.853320000000E+00 -3.274470000000E-03
S  1 1.00
9.056610000000E-01 1.000000000000E+00
S  1 1.00
2.556110000000E-01 1.000000000000E+00
S  1 1.00
8.450000000000E-02 1.000000000000E+00
P  3 1.00
4.211750000000E+01 3.651140000000E-02
9.628370000000E+00 2.371530000000E-01
2.853320000000E+00 8.197020000000E-01
P  1 1.00
9.056610000000E-01 1.000000000000E+00
P  1 1.00
2.556110000000E-01 1.000000000000E+00
P  1 1.00
8.450000000000E-02 1.000000000000E+00
D  1 1.00
2.584000000000E+00 1.000000000000E+00
D  1 1.00
6.460000000000E-01 1.000000000000E+00
F  1 1.00
1.400000000000E+00 1.000000000000E+00
****
--------------------------------------------------------------

 Total energy in the final basis set = -272.1622878818
   12    -272.1622878062      5.01E-09 Convergence criterion met
 Total energy in the final basis set = -272.1622878062
   12    -272.1622877841      4.05E-09 Convergence criterion met
 Total energy in the final basis set = -272.1622877841
   10    -272.1622874959      6.76E-09 Convergence criterion met
 Total energy in the final basis set = -272.1622874959
    9    -272.1622874935      9.68E-09 Convergence criterion met
 Total energy in the final basis set = -272.1622874935
   10    -272.1622880234      2.99E-09 Convergence criterion met
 Total energy in the final basis set = -272.1622880234
    9    -272.1622879468      8.01E-09 Convergence criterion met
 Total energy in the final basis set = -272.1622879468
   10    -272.1622877415      9.26E-09 Convergence criterion met
 Total energy in the final basis set = -272.1622877415

                    Orbital Energies (a.u.)
 --------------------------------------------------------------

 Alpha MOs
 -- Occupied --
-19.588 -10.527 -10.513 -10.509 -10.491 -10.479  -1.086  -0.926
 -0.847  -0.775  -0.701  -0.644  -0.551  -0.542  -0.532  -0.498
 -0.492  -0.463  -0.460  -0.450  -0.409  -0.405  -0.401  -0.397
 -0.319

 Beta MOs
 -- Occupied --
-19.565 -10.527 -10.509 -10.509 -10.491 -10.479  -1.032  -0.925
 -0.844  -0.775  -0.700  -0.643  -0.549  -0.540  -0.516  -0.494
 -0.478  -0.463  -0.451  -0.411  -0.405  -0.399  -0.370  -0.338

          Ground-State Mulliken Net Atomic Charges

     Atom                 Charge (a.u.)    Spin (a.u.)
  --------------------------------------------------------
      1 C                    -0.148258       0.007294
      2 H                     0.274366      -0.000570
      3 C                    -0.776299      -0.005641
      4 H                     0.190856       0.000406
      5 H                     0.185649       0.000254
      6 H                     0.223375      -0.001009
      7 C                    -0.601214       0.001042
      8 H                     0.201942      -0.000400
      9 H                     0.206529       0.000844
     10 H                     0.201526      -0.000481
     11 C                     0.386987      -0.017743
     12 H                     0.389979       0.003255
     13 C                    -1.129169       0.252450
     14 H                     0.221907      -0.014900
     15 H                     0.257116      -0.016268
     16 O                    -0.364460       0.816211
     17 H                     0.279168      -0.024744
  --------------------------------------------------------
  Sum of atomic charges =     0.000000

                    Cartesian Multipole Moments
 -----------------------------------------------------------------
    Charge (ESU x 10^10)
                 0.0000
    Dipole Moment (Debye)
         X      -0.3160      Y       1.6826      Z      -0.5670
       Tot       1.8035
    Quadrupole Moments (Debye-Ang)
        XX     -38.2056     XY       4.1416     YY     -42.2187
        XZ      -1.7244     YZ      -0.1431     ZZ     -38.8194

             Standard Nuclear Orientation (Angstroms)
    I     Atom           X                Y                Z
 ----------------------------------------------------------------
    1      C      -0.7469893927    -0.0514354059    -0.3139402369
    2      H      -0.5221879287     0.0195945188    -1.3889447720
    3      C      -2.0114459328     0.7747454288    -0.0128195144
    4      H      -1.8859111602     1.8228623301    -0.3105364036
    5      H      -2.8752656841     0.3577577339    -0.5466514869
    6      H      -2.2362699515     0.7502572369     1.0630109811
    7      C      -0.9706184200    -1.5197030665     0.0644319837
    8      H      -1.8284886787    -1.9293972829    -0.4841628890
    9      H      -0.0821354338    -2.1200034176    -0.1537834155
   10      H      -1.1896416254    -1.6026613125     1.1391724270
   11      C       0.4101728417     0.5450548402     0.4436004970
   12      H       0.4758547018     0.2904460744     1.5044297420
   13      C       1.2677424412     1.4510480640    -0.0649708960
   14      H       2.0326875322     1.9180019305     0.5511456838
   15      H       1.2115805218     1.7425556341    -1.1143083261
   16      O       2.0613166876    -0.9989849512    -0.0537150130
   17      H       2.7160749811    -0.4557929993    -0.5274624363
 ----------------------------------------------------------------

 Frequency:        42.41                 103.08                 128.75
 Force Cnst:      0.0038                 0.0325                 0.0212
 Red. Mass:       3.5630                 5.1854                 2.1732
 IR Intens:        3.561                  4.727                 40.180
 Frequency:       194.28                 197.74                 216.55
 Force Cnst:      0.0308                 0.0781                 0.0300
 Red. Mass:       1.3828                 3.3920                 1.0866
 IR Intens:       44.280                 12.281                  1.018
 Frequency:       236.78                 298.98                 345.37
 Force Cnst:      0.0372                 0.1016                 0.1458
 Red. Mass:       1.1271                 1.9296                 2.0751
 IR Intens:        0.245                  1.480                  0.198
 Frequency:       358.69                 485.71                 644.15
 Force Cnst:      0.1302                 0.3397                 0.2669
 Red. Mass:       1.7179                 2.4440                 1.0919
 IR Intens:        3.106                  0.734                 85.625
 Frequency:       670.92                 806.00                 912.61
 Force Cnst:      0.3733                 0.7819                 0.5655
 Red. Mass:       1.4076                 2.0428                 1.1525
 IR Intens:        4.138                  1.349                  0.542
 Frequency:       937.87                 945.01                 960.75
 Force Cnst:      0.9352                 0.7188                 0.7675
 Red. Mass:       1.8046                 1.3661                 1.4113
 IR Intens:       14.034                 38.054                  0.428
 Frequency:       990.09                1011.36                1120.46
 Force Cnst:      0.6887                 0.7136                 1.6015
 Red. Mass:       1.1924                 1.1840                 2.1651
 IR Intens:        7.330                 17.567                  2.787
 Frequency:      1174.29                1209.17                1291.32
 Force Cnst:      1.5049                 1.5667                 1.2878
 Red. Mass:       1.8523                 1.8187                 1.3107
 IR Intens:        1.857                  0.238                  3.116
 Frequency:      1299.79                1318.63                1375.67
 Force Cnst:      1.4620                 1.4615                 1.4014
 Red. Mass:       1.4688                 1.4266                 1.2569
 IR Intens:       10.588                 10.295                 10.298
 Frequency:      1394.95                1433.79                1464.69
 Force Cnst:      1.4459                 1.4857                 1.3254
 Red. Mass:       1.2612                 1.2266                 1.0486
 IR Intens:        6.824                  6.769                  6.081
 Frequency:      1467.35                1478.14                1491.30
 Force Cnst:      1.3257                 1.3554                 1.3933
 Red. Mass:       1.0450                 1.0529                 1.0633
 IR Intens:        0.938                  5.549                 13.246
 Frequency:      1643.05                2970.46                2976.18
 Force Cnst:      6.6521                 5.3952                 5.4657
 Red. Mass:       4.1822                 1.0378                 1.0473
 IR Intens:      106.716                 21.667                 14.532
 Frequency:      2984.23                3039.03                3043.49
 Force Cnst:      5.6319                 5.9867                 6.0011
 Red. Mass:       1.0733                 1.1002                 1.0996
 IR Intens:       22.323                  3.182                 49.904
 Frequency:      3058.28                3083.57                3084.58
 Force Cnst:      6.0769                 5.9453                 6.1641
 Red. Mass:       1.1027                 1.0612                 1.0996
 IR Intens:       20.459                  6.316                  5.704
 Frequency:      3089.13                3179.76                3775.98
 Force Cnst:      6.1124                 6.6502                 8.9657
 Red. Mass:       1.0871                 1.1163                 1.0673
 IR Intens:        9.330                  5.074                 44.051

 STANDARD THERMODYNAMIC QUANTITIES AT   298.15 K  AND     1.00 ATM

   This Molecule has  0 Imaginary Frequencies
   Zero point vibrational energy:       91.399 kcal/mol

   Atom    1 Element C  Has Mass   12.00000
   Atom    2 Element H  Has Mass    1.00783
   Atom    3 Element C  Has Mass   12.00000
   Atom    4 Element H  Has Mass    1.00783
   Atom    5 Element H  Has Mass    1.00783
   Atom    6 Element H  Has Mass    1.00783
   Atom    7 Element C  Has Mass   12.00000
   Atom    8 Element H  Has Mass    1.00783
   Atom    9 Element H  Has Mass    1.00783
   Atom   10 Element H  Has Mass    1.00783
   Atom   11 Element C  Has Mass   12.00000
   Atom   12 Element H  Has Mass    1.00783
   Atom   13 Element C  Has Mass   12.00000
   Atom   14 Element H  Has Mass    1.00783
   Atom   15 Element H  Has Mass    1.00783
   Atom   16 Element O  Has Mass   15.99491
   Atom   17 Element H  Has Mass    1.00783
   Molecular Mass:    87.081040 amu
   Principal axes and moments of inertia in amu*Bohr^2:
                             1           2           3
    Eigenvalues --      408.40255   728.57430  1045.20735
          X               0.99885     0.04773    -0.00515
          Y              -0.04778     0.99882    -0.00880
          Z               0.00472     0.00904     0.99995
   Rotational Symmetry Number is   1
   The Molecule is an Asymmetric Top
   Translational Enthalpy:        0.889 kcal/mol
   Rotational Enthalpy:           0.889 kcal/mol
   Vibrational Enthalpy:         95.507 kcal/mol
   gas constant (RT):             0.592 kcal/mol
   Translational Entropy:        39.306  cal/mol.K
   Rotational Entropy:           27.233  cal/mol.K
   Vibrational Entropy:          26.018  cal/mol.K

   Total Enthalpy:               97.877 kcal/mol
   Total Entropy:                92.556  cal/mol.K

 Total job time:  107053.69s(wall), 106312.49s(cpu)
        *  Thank you very much for using Q-Chem.  Have a nice day.  *
