 Q-Chem 4.2, Q-Chem, Inc., Pleasanton, CA (2014).
 Q-Chem 4.2.0 for Intel X86 Linux

User input:
--------------------------------------------------------------
$rem
XC_GRID 000075000434
JOBTYPE ts
EXCHANGE M08SO
BASIS gen
GUI=2
UNRESTRICTED TRUE
CORRELATION NONE
$end

$comment
c5h11o-2
$end

$molecule
read iC5H11O-1_betasc_CH2O.out
$end

$basis
H  0
S  3 1.00
3.386500000000E+01 2.549380000000E-02
5.094790000000E+00 1.903730000000E-01
1.158790000000E+00 8.521610000000E-01
S  1 1.00
3.258400000000E-01 1.000000000000E+00
S  1 1.00
1.027410000000E-01 1.000000000000E+00
S  1 1.00
3.600000000000E-02 1.000000000000E+00
P  1 1.00
1.500000000000E+00 1.000000000000E+00
P  1 1.00
3.750000000000E-01 1.000000000000E+00
****
C 0
S  6 1.00
4.563240000000E+03 1.966650000000E-03
6.820240000000E+02 1.523060000000E-02
1.549730000000E+02 7.612690000000E-02
4.445530000000E+01 2.608010000000E-01
1.302900000000E+01 6.164620000000E-01
1.827730000000E+00 2.210060000000E-01
S  3 1.00
2.096420000000E+01 1.146600000000E-01
4.803310000000E+00 9.199990000000E-01
1.459330000000E+00 -3.030680000000E-03
S  1 1.00
4.834560000000E-01 1.000000000000E+00
S  1 1.00
1.455850000000E-01 1.000000000000E+00
S  1 1.00
4.380000000000E-02 1.000000000000E+00
P  3 1.00
2.096420000000E+01 4.024870000000E-02
4.803310000000E+00 2.375940000000E-01
1.459330000000E+00 8.158540000000E-01
P  1 1.00
4.834560000000E-01 1.000000000000E+00
P  1 1.00
1.455850000000E-01 1.000000000000E+00
P  1 1.00
4.380000000000E-02 1.000000000000E+00
D  1 1.00
1.252000000000E+00 1.000000000000E+00
D  1 1.00
3.130000000000E-01 1.000000000000E+00
F  1 1.00
8.000000000000E-01 1.000000000000E+00
****
O  0
S  6 1.00
8.588500000000E+03 1.895150000000E-03
1.297230000000E+03 1.438590000000E-02
2.992960000000E+02 7.073200000000E-02
8.737710000000E+01 2.400010000000E-01
2.567890000000E+01 5.947970000000E-01
3.740040000000E+00 2.808020000000E-01
S  3 1.00
4.211750000000E+01 1.138890000000E-01
9.628370000000E+00 9.208110000000E-01
2.853320000000E+00 -3.274470000000E-03
S  1 1.00
9.056610000000E-01 1.000000000000E+00
S  1 1.00
2.556110000000E-01 1.000000000000E+00
S  1 1.00
8.450000000000E-02 1.000000000000E+00
P  3 1.00
4.211750000000E+01 3.651140000000E-02
9.628370000000E+00 2.371530000000E-01
2.853320000000E+00 8.197020000000E-01
P  1 1.00
9.056610000000E-01 1.000000000000E+00
P  1 1.00
2.556110000000E-01 1.000000000000E+00
P  1 1.00
8.450000000000E-02 1.000000000000E+00
D  1 1.00
2.584000000000E+00 1.000000000000E+00
D  1 1.00
6.460000000000E-01 1.000000000000E+00
F  1 1.00
1.400000000000E+00 1.000000000000E+00
****
$end

--------------------------------------------------------------

   24    -272.1712114061      5.73E-09 Convergence criterion met
 Total energy in the final basis set = -272.1712114061
   12    -272.1710936192      7.84E-09 Convergence criterion met
 Total energy in the final basis set = -272.1710936192
   12    -272.1708329257      7.29E-09 Convergence criterion met
 Total energy in the final basis set = -272.1708329257
   12    -272.1704514142      9.89E-09 Convergence criterion met
 Total energy in the final basis set = -272.1704514142
   13    -272.1700131709      6.42E-09 Convergence criterion met
 Total energy in the final basis set = -272.1700131709
   13    -272.1696129045      8.07E-09 Convergence criterion met
 Total energy in the final basis set = -272.1696129045
   13    -272.1694671019      8.16E-09 Convergence criterion met
 Total energy in the final basis set = -272.1694671019
   13    -272.1705426371      5.89E-09 Convergence criterion met
 **  OPTIMIZATION CONVERGED  **
 Total job time:  29860.17s(wall), 29723.58s(cpu)
        *  Thank you very much for using Q-Chem.  Have a nice day.  *
 Q-Chem 4.2, Q-Chem, Inc., Pleasanton, CA (2014).
 Q-Chem 4.2.0 for Intel X86 Linux

User input:
--------------------------------------------------------------

$molecule
READ
$end

$rem
JOBTYPE Freq
XC_GRID 000075000434
EXCHANGE M08SO
BASIS gen
GUI=2
SCF_GUESS READ
$end

$basis
H  0
S  3 1.00
3.386500000000E+01 2.549380000000E-02
5.094790000000E+00 1.903730000000E-01
1.158790000000E+00 8.521610000000E-01
S  1 1.00
3.258400000000E-01 1.000000000000E+00
S  1 1.00
1.027410000000E-01 1.000000000000E+00
S  1 1.00
3.600000000000E-02 1.000000000000E+00
P  1 1.00
1.500000000000E+00 1.000000000000E+00
P  1 1.00
3.750000000000E-01 1.000000000000E+00
****
C 0
S  6 1.00
4.563240000000E+03 1.966650000000E-03
6.820240000000E+02 1.523060000000E-02
1.549730000000E+02 7.612690000000E-02
4.445530000000E+01 2.608010000000E-01
1.302900000000E+01 6.164620000000E-01
1.827730000000E+00 2.210060000000E-01
S  3 1.00
2.096420000000E+01 1.146600000000E-01
4.803310000000E+00 9.199990000000E-01
1.459330000000E+00 -3.030680000000E-03
S  1 1.00
4.834560000000E-01 1.000000000000E+00
S  1 1.00
1.455850000000E-01 1.000000000000E+00
S  1 1.00
4.380000000000E-02 1.000000000000E+00
P  3 1.00
2.096420000000E+01 4.024870000000E-02
4.803310000000E+00 2.375940000000E-01
1.459330000000E+00 8.158540000000E-01
P  1 1.00
4.834560000000E-01 1.000000000000E+00
P  1 1.00
1.455850000000E-01 1.000000000000E+00
P  1 1.00
4.380000000000E-02 1.000000000000E+00
D  1 1.00
1.252000000000E+00 1.000000000000E+00
D  1 1.00
3.130000000000E-01 1.000000000000E+00
F  1 1.00
8.000000000000E-01 1.000000000000E+00
****
O  0
S  6 1.00
8.588500000000E+03 1.895150000000E-03
1.297230000000E+03 1.438590000000E-02
2.992960000000E+02 7.073200000000E-02
8.737710000000E+01 2.400010000000E-01
2.567890000000E+01 5.947970000000E-01
3.740040000000E+00 2.808020000000E-01
S  3 1.00
4.211750000000E+01 1.138890000000E-01
9.628370000000E+00 9.208110000000E-01
2.853320000000E+00 -3.274470000000E-03
S  1 1.00
9.056610000000E-01 1.000000000000E+00
S  1 1.00
2.556110000000E-01 1.000000000000E+00
S  1 1.00
8.450000000000E-02 1.000000000000E+00
P  3 1.00
4.211750000000E+01 3.651140000000E-02
9.628370000000E+00 2.371530000000E-01
2.853320000000E+00 8.197020000000E-01
P  1 1.00
9.056610000000E-01 1.000000000000E+00
P  1 1.00
2.556110000000E-01 1.000000000000E+00
P  1 1.00
8.450000000000E-02 1.000000000000E+00
D  1 1.00
2.584000000000E+00 1.000000000000E+00
D  1 1.00
6.460000000000E-01 1.000000000000E+00
F  1 1.00
1.400000000000E+00 1.000000000000E+00
****
--------------------------------------------------------------

 Total energy in the final basis set = -272.1719169336
   10    -272.1719168847      3.85E-09 Convergence criterion met
 Total energy in the final basis set = -272.1719168847
    9    -272.1719171365      9.13E-09 Convergence criterion met
 Total energy in the final basis set = -272.1719171365
    9    -272.1719171987      8.69E-09 Convergence criterion met
 Total energy in the final basis set = -272.1719171987
   10    -272.1719159883      4.19E-09 Convergence criterion met
 Total energy in the final basis set = -272.1719159883
   10    -272.1719161041      6.88E-09 Convergence criterion met
 Total energy in the final basis set = -272.1719161041
   10    -272.1719172294      3.87E-09 Convergence criterion met
 Total energy in the final basis set = -272.1719172294
    9    -272.1719170621      8.19E-09 Convergence criterion met
 Total energy in the final basis set = -272.1719170621

                    Orbital Energies (a.u.)
 --------------------------------------------------------------

 Alpha MOs
 -- Occupied --
-19.558 -10.579 -10.540 -10.515 -10.497 -10.482  -1.151  -0.921
 -0.794  -0.781  -0.710  -0.657  -0.569  -0.552  -0.531  -0.520
 -0.518  -0.480  -0.460  -0.452  -0.424  -0.413  -0.405  -0.338
 -0.288

 Beta MOs
 -- Occupied --
-19.549 -10.581 -10.527 -10.516 -10.496 -10.482  -1.133  -0.917
 -0.781  -0.778  -0.701  -0.652  -0.565  -0.547  -0.518  -0.516
 -0.508  -0.468  -0.453  -0.429  -0.418  -0.408  -0.403  -0.330

          Ground-State Mulliken Net Atomic Charges

     Atom                 Charge (a.u.)    Spin (a.u.)
  --------------------------------------------------------
      1 C                     0.019575      -0.065018
      2 H                     0.269245       0.022635
      3 C                    -0.644017       0.021217
      4 H                     0.207482      -0.000126
      5 H                     0.201045       0.013087
      6 H                     0.186302       0.003132
      7 C                    -0.712777       0.005935
      8 H                     0.202527       0.002195
      9 H                     0.229435      -0.000421
     10 H                     0.199703       0.000905
     11 C                    -0.509868       0.788133
     12 H                     0.257387      -0.028028
     13 H                     0.246599      -0.038087
     14 C                    -0.236654      -0.069457
     15 H                     0.181655       0.015833
     16 H                     0.168584       0.011936
     17 O                    -0.266222       0.316129
  --------------------------------------------------------
  Sum of atomic charges =     0.000000

                    Cartesian Multipole Moments
 -----------------------------------------------------------------
    Charge (ESU x 10^10)
                 0.0000
    Dipole Moment (Debye)
         X      -1.7937      Y      -2.4946      Z       0.3528
       Tot       3.0927
    Quadrupole Moments (Debye-Ang)
        XX     -43.9980     XY      -5.2669     YY     -40.0261
        XZ       1.0651     YZ       0.2888     ZZ     -39.2439

             Standard Nuclear Orientation (Angstroms)
    I     Atom           X                Y                Z
 ----------------------------------------------------------------
    1      C      -0.8291436946    -0.0062064314    -0.2499739629
    2      H      -0.4461912421    -0.0357620274    -1.2844609010
    3      C      -2.2648929519    -0.5689136616    -0.2608842955
    4      H      -2.6902995142    -0.5543764402     0.7518771548
    5      H      -2.9062685895     0.0455824290    -0.9060166961
    6      H      -2.2921839811    -1.6020155724    -0.6298712092
    7      C      -0.8153470048     1.4446952162     0.2390266032
    8      H      -1.2256859908     1.5014787278     1.2580309618
    9      H       0.2060468698     1.8418449373     0.2490713806
   10      H      -1.4338636831     2.0784662457    -0.4088176216
   11      C       0.0463376882    -0.8782464088     0.6027012866
   12      H       0.0304907056    -1.9567055530     0.4283702644
   13      H       0.2315160404    -0.5724477211     1.6338079831
   14      C       2.0251294307    -0.5798169506    -0.1583395420
   15      H       1.7549353475    -1.1647200682    -1.0623343511
   16      H       2.4563695420    -1.1674794107     0.6774653804
   17      O       2.1678292112     0.6396329838    -0.2177878603
 ----------------------------------------------------------------

 Frequency:      -441.05                  58.51                 118.83
 Force Cnst:      1.1228                 0.0066                 0.0216
 Red. Mass:       9.7965                 3.2925                 2.5909
 IR Intens:       44.080                  6.326                  4.025
 Frequency:       166.70                 221.95                 256.57
 Force Cnst:      0.0502                 0.0299                 0.0459
 Red. Mass:       3.0672                 1.0285                 1.1833
 IR Intens:        5.054                  0.022                  3.875
 Frequency:       282.23                 339.77                 374.34
 Force Cnst:      0.1567                 0.1427                 0.1600
 Red. Mass:       3.3391                 2.0973                 1.9380
 IR Intens:       24.892                  0.786                  7.919
 Frequency:       425.40                 584.87                 625.82
 Force Cnst:      0.2230                 0.2386                 0.2621
 Red. Mass:       2.0917                 1.1839                 1.1358
 IR Intens:        0.365                  3.053                  0.927
 Frequency:       832.00                 863.88                 907.78
 Force Cnst:      1.0752                 0.4729                 0.5656
 Red. Mass:       2.6362                 1.0755                 1.1649
 IR Intens:        1.779                 16.571                  1.365
 Frequency:       928.34                 960.20                 972.49
 Force Cnst:      0.6000                 0.7830                 1.0399
 Red. Mass:       1.1816                 1.4414                 1.8663
 IR Intens:        0.908                  0.781                  2.473
 Frequency:      1092.70                1123.67                1186.25
 Force Cnst:      0.9731                 1.3000                 1.4364
 Red. Mass:       1.3832                 1.7475                 1.7325
 IR Intens:        7.254                  0.819                  0.190
 Frequency:      1188.44                1229.26                1297.57
 Force Cnst:      1.4257                 1.1736                 1.4213
 Red. Mass:       1.7132                 1.3182                 1.4328
 IR Intens:        1.069                  5.309                  0.813
 Frequency:      1343.25                1377.45                1396.63
 Force Cnst:      1.5782                 1.4095                 1.4798
 Red. Mass:       1.4846                 1.2609                 1.2877
 IR Intens:        4.675                  6.229                 10.365
 Frequency:      1441.20                1463.09                1465.98
 Force Cnst:      1.4418                 1.6417                 1.3256
 Red. Mass:       1.1782                 1.3017                 1.0469
 IR Intens:        2.416                 39.770                  1.082
 Frequency:      1469.38                1481.11                1491.17
 Force Cnst:      1.3429                 1.3647                 1.4003
 Red. Mass:       1.0556                 1.0558                 1.0688
 IR Intens:        3.285                  6.477                 10.361
 Frequency:      1625.76                2890.87                2948.75
 Force Cnst:      5.2167                 5.1280                 5.5456
 Red. Mass:       3.3499                 1.0414                 1.0825
 IR Intens:       65.426                 51.895                  2.648
 Frequency:      2957.37                2973.50                2975.68
 Force Cnst:      5.7610                 5.4022                 5.4037
 Red. Mass:       1.1180                 1.0370                 1.0358
 IR Intens:       73.507                 20.083                 32.584
 Frequency:      3042.43                3047.95                3053.43
 Force Cnst:      5.9989                 6.0313                 6.0552
 Red. Mass:       1.1000                 1.1019                 1.1023
 IR Intens:       11.250                 31.484                 21.862
 Frequency:      3066.17                3072.32                3166.19
 Force Cnst:      5.8347                 6.1245                 6.5915
 Red. Mass:       1.0534                 1.1012                 1.1160
 IR Intens:       16.762                  4.912                  6.871

 STANDARD THERMODYNAMIC QUANTITIES AT   298.15 K  AND     1.00 ATM

   This Molecule has  1 Imaginary Frequencies
   Zero point vibrational energy:       91.188 kcal/mol

   Atom    1 Element C  Has Mass   12.00000
   Atom    2 Element H  Has Mass    1.00783
   Atom    3 Element C  Has Mass   12.00000
   Atom    4 Element H  Has Mass    1.00783
   Atom    5 Element H  Has Mass    1.00783
   Atom    6 Element H  Has Mass    1.00783
   Atom    7 Element C  Has Mass   12.00000
   Atom    8 Element H  Has Mass    1.00783
   Atom    9 Element H  Has Mass    1.00783
   Atom   10 Element H  Has Mass    1.00783
   Atom   11 Element C  Has Mass   12.00000
   Atom   12 Element H  Has Mass    1.00783
   Atom   13 Element H  Has Mass    1.00783
   Atom   14 Element C  Has Mass   12.00000
   Atom   15 Element H  Has Mass    1.00783
   Atom   16 Element H  Has Mass    1.00783
   Atom   17 Element O  Has Mass   15.99491
   Molecular Mass:    87.081040 amu
   Principal axes and moments of inertia in amu*Bohr^2:
                             1           2           3
    Eigenvalues --      306.78120   905.06032  1087.56639
          X               0.99963    -0.02608     0.00817
          Y               0.02597     0.99957     0.01392
          Z              -0.00853    -0.01370     0.99987
   Rotational Symmetry Number is   1
   The Molecule is an Asymmetric Top
   Translational Enthalpy:        0.889 kcal/mol
   Rotational Enthalpy:           0.889 kcal/mol
   Vibrational Enthalpy:         94.561 kcal/mol
   gas constant (RT):             0.592 kcal/mol
   Translational Entropy:        39.306  cal/mol.K
   Rotational Entropy:           27.204  cal/mol.K
   Vibrational Entropy:          20.518  cal/mol.K

   Total Enthalpy:               96.931 kcal/mol
   Total Entropy:                87.028  cal/mol.K

 Total job time:  68536.51s(wall), 68224.30s(cpu)
        *  Thank you very much for using Q-Chem.  Have a nice day.  *
