 Q-Chem 4.2, Q-Chem, Inc., Pleasanton, CA (2014).
 Q-Chem 4.2.0 for Intel X86 Linux

User input:
--------------------------------------------------------------
$rem
XC_GRID 000075000434
JOBTYPE ts
EXCHANGE M08SO
BASIS gen
GEOM_OPT_MAX_CYCLES 60
!GEOM_OPT_TOL_DISPLACEMENT 3000
GEOM_OPT_TOL_ENERGY 10
!   SCF_ALGORITHM DIIS_GDM
incdft false
!   varthresh false
GUI=2
UNRESTRICTED TRUE
CORRELATION NONE
$end

$comment
c5h11o-2
$end
$opt
stre 1 14 2.244
$end
$molecule
0 2
C       -0.89027        0.40256        0.35908
H       -1.09737        0.24900        1.41516
C       -1.38583        1.52581       -0.22873
H       -1.10920        1.79860       -1.24239
H       -2.13826        2.13631        0.25664
C        0.31678       -0.32598       -0.18865
H        0.30388       -0.31531       -1.28263
H        0.32122       -1.37293        0.12369
C        1.62487        0.30526        0.28594
H        1.63697        0.34917        1.38529
H        1.69468        1.33499       -0.09055
O        2.69261       -0.50124       -0.20678
H        3.52141       -0.10848        0.08123
C       -2.47423       -1.23069       -0.02812
H       -2.32450       -1.38734       -1.08902
H       -2.10840       -2.00520        0.63633
H       -3.38913       -0.73066        0.26338
$end

$basis
H  0
S  3 1.00
3.386500000000E+01 2.549380000000E-02
5.094790000000E+00 1.903730000000E-01
1.158790000000E+00 8.521610000000E-01
S  1 1.00
3.258400000000E-01 1.000000000000E+00
S  1 1.00
1.027410000000E-01 1.000000000000E+00
S  1 1.00
3.600000000000E-02 1.000000000000E+00
P  1 1.00
1.500000000000E+00 1.000000000000E+00
P  1 1.00
3.750000000000E-01 1.000000000000E+00
****
C 0
S  6 1.00
4.563240000000E+03 1.966650000000E-03
6.820240000000E+02 1.523060000000E-02
1.549730000000E+02 7.612690000000E-02
4.445530000000E+01 2.608010000000E-01
1.302900000000E+01 6.164620000000E-01
1.827730000000E+00 2.210060000000E-01
S  3 1.00
2.096420000000E+01 1.146600000000E-01
4.803310000000E+00 9.199990000000E-01
1.459330000000E+00 -3.030680000000E-03
S  1 1.00
4.834560000000E-01 1.000000000000E+00
S  1 1.00
1.455850000000E-01 1.000000000000E+00
S  1 1.00
4.380000000000E-02 1.000000000000E+00
P  3 1.00
2.096420000000E+01 4.024870000000E-02
4.803310000000E+00 2.375940000000E-01
1.459330000000E+00 8.158540000000E-01
P  1 1.00
4.834560000000E-01 1.000000000000E+00
P  1 1.00
1.455850000000E-01 1.000000000000E+00
P  1 1.00
4.380000000000E-02 1.000000000000E+00
D  1 1.00
1.252000000000E+00 1.000000000000E+00
D  1 1.00
3.130000000000E-01 1.000000000000E+00
F  1 1.00
8.000000000000E-01 1.000000000000E+00
****
O  0
S  6 1.00
8.588500000000E+03 1.895150000000E-03
1.297230000000E+03 1.438590000000E-02
2.992960000000E+02 7.073200000000E-02
8.737710000000E+01 2.400010000000E-01
2.567890000000E+01 5.947970000000E-01
3.740040000000E+00 2.808020000000E-01
S  3 1.00
4.211750000000E+01 1.138890000000E-01
9.628370000000E+00 9.208110000000E-01
2.853320000000E+00 -3.274470000000E-03
S  1 1.00
9.056610000000E-01 1.000000000000E+00
S  1 1.00
2.556110000000E-01 1.000000000000E+00
S  1 1.00
8.450000000000E-02 1.000000000000E+00
P  3 1.00
4.211750000000E+01 3.651140000000E-02
9.628370000000E+00 2.371530000000E-01
2.853320000000E+00 8.197020000000E-01
P  1 1.00
9.056610000000E-01 1.000000000000E+00
P  1 1.00
2.556110000000E-01 1.000000000000E+00
P  1 1.00
8.450000000000E-02 1.000000000000E+00
D  1 1.00
2.584000000000E+00 1.000000000000E+00
D  1 1.00
6.460000000000E-01 1.000000000000E+00
F  1 1.00
1.400000000000E+00 1.000000000000E+00
****
$end

--------------------------------------------------------------

   22    -272.1478779559      5.48E-09 Convergence criterion met
 Total energy in the final basis set = -272.1478779559
 Q-Chem 4.2, Q-Chem, Inc., Pleasanton, CA (2014).
 Q-Chem 4.2.0 for Intel X86 Linux

User input:
--------------------------------------------------------------

$molecule
READ
$end

$rem
JOBTYPE Freq
XC_GRID 000075000434
EXCHANGE M08SO
BASIS gen
GUI=2
SCF_GUESS READ
$end

$basis
H  0
S  3 1.00
3.386500000000E+01 2.549380000000E-02
5.094790000000E+00 1.903730000000E-01
1.158790000000E+00 8.521610000000E-01
S  1 1.00
3.258400000000E-01 1.000000000000E+00
S  1 1.00
1.027410000000E-01 1.000000000000E+00
S  1 1.00
3.600000000000E-02 1.000000000000E+00
P  1 1.00
1.500000000000E+00 1.000000000000E+00
P  1 1.00
3.750000000000E-01 1.000000000000E+00
****
C 0
S  6 1.00
4.563240000000E+03 1.966650000000E-03
6.820240000000E+02 1.523060000000E-02
1.549730000000E+02 7.612690000000E-02
4.445530000000E+01 2.608010000000E-01
1.302900000000E+01 6.164620000000E-01
1.827730000000E+00 2.210060000000E-01
S  3 1.00
2.096420000000E+01 1.146600000000E-01
4.803310000000E+00 9.199990000000E-01
1.459330000000E+00 -3.030680000000E-03
S  1 1.00
4.834560000000E-01 1.000000000000E+00
S  1 1.00
1.455850000000E-01 1.000000000000E+00
S  1 1.00
4.380000000000E-02 1.000000000000E+00
P  3 1.00
2.096420000000E+01 4.024870000000E-02
4.803310000000E+00 2.375940000000E-01
1.459330000000E+00 8.158540000000E-01
P  1 1.00
4.834560000000E-01 1.000000000000E+00
P  1 1.00
1.455850000000E-01 1.000000000000E+00
P  1 1.00
4.380000000000E-02 1.000000000000E+00
D  1 1.00
1.252000000000E+00 1.000000000000E+00
D  1 1.00
3.130000000000E-01 1.000000000000E+00
F  1 1.00
8.000000000000E-01 1.000000000000E+00
****
O  0
S  6 1.00
8.588500000000E+03 1.895150000000E-03
1.297230000000E+03 1.438590000000E-02
2.992960000000E+02 7.073200000000E-02
8.737710000000E+01 2.400010000000E-01
2.567890000000E+01 5.947970000000E-01
3.740040000000E+00 2.808020000000E-01
S  3 1.00
4.211750000000E+01 1.138890000000E-01
9.628370000000E+00 9.208110000000E-01
2.853320000000E+00 -3.274470000000E-03
S  1 1.00
9.056610000000E-01 1.000000000000E+00
S  1 1.00
2.556110000000E-01 1.000000000000E+00
S  1 1.00
8.450000000000E-02 1.000000000000E+00
P  3 1.00
4.211750000000E+01 3.651140000000E-02
9.628370000000E+00 2.371530000000E-01
2.853320000000E+00 8.197020000000E-01
P  1 1.00
9.056610000000E-01 1.000000000000E+00
P  1 1.00
2.556110000000E-01 1.000000000000E+00
P  1 1.00
8.450000000000E-02 1.000000000000E+00
D  1 1.00
2.584000000000E+00 1.000000000000E+00
D  1 1.00
6.460000000000E-01 1.000000000000E+00
F  1 1.00
1.400000000000E+00 1.000000000000E+00
****
--------------------------------------------------------------

    2    -272.1478779562      9.19E-10 Convergence criterion met
 Total energy in the final basis set = -272.1478779562
   10    -272.1478876431      3.65E-09 Convergence criterion met
 Total energy in the final basis set = -272.1478876431
   10    -272.1478670632      7.28E-09 Convergence criterion met
 Total energy in the final basis set = -272.1478670632
   10    -272.1478506378      3.81E-09 Convergence criterion met
 Total energy in the final basis set = -272.1478506378
   10    -272.1479042900      7.26E-09 Convergence criterion met
 Total energy in the final basis set = -272.1479042900
   10    -272.1478803674      5.78E-09 Convergence criterion met
 Total energy in the final basis set = -272.1478803674
   10    -272.1478733965      7.22E-09 Convergence criterion met
 Total energy in the final basis set = -272.1478734305
    8    -272.1478818976      5.18E-09 Convergence criterion met
 Total energy in the final basis set = -272.1478818976
    8    -272.1478745885      7.20E-09 Convergence criterion met
 Total energy in the final basis set = -272.1478745885
    9    -272.1478803957      8.58E-09 Convergence criterion met
 Total energy in the final basis set = -272.1478803957
    7    -272.1478729194      7.82E-09 Convergence criterion met
 Total energy in the final basis set = -272.1478729194
    9    -272.1478826449      7.89E-09 Convergence criterion met
 Total energy in the final basis set = -272.1478826449
    8    -272.1478758405      7.83E-09 Convergence criterion met
 Total energy in the final basis set = -272.1478758405
    7    -272.1478798360      7.91E-09 Convergence criterion met
 Total energy in the final basis set = -272.1478798360

                    Orbital Energies (a.u.)
 --------------------------------------------------------------

 Alpha MOs
 -- Occupied --
-19.566 -10.545 -10.513 -10.502 -10.496 -10.492  -1.137  -0.905
 -0.818  -0.770  -0.712  -0.645  -0.598  -0.562  -0.524  -0.498
 -0.491  -0.479  -0.474  -0.429  -0.422  -0.413  -0.363  -0.359
 -0.247

 Beta MOs
 -- Occupied --
-19.566 -10.545 -10.516 -10.496 -10.486 -10.486  -1.137  -0.902
 -0.815  -0.747  -0.710  -0.643  -0.597  -0.561  -0.523  -0.497
 -0.488  -0.473  -0.469  -0.429  -0.419  -0.412  -0.363  -0.323

          Ground-State Mulliken Net Atomic Charges

     Atom                 Charge (a.u.)    Spin (a.u.)
  --------------------------------------------------------
      1 C                     0.137140      -0.270354
      2 H                     0.356262       0.017367
      3 C                    -0.712033       0.439246
      4 H                     0.213165      -0.022954
      5 H                     0.180946      -0.019807
      6 C                    -0.425005       0.034370
      7 H                     0.254084       0.003249
      8 H                     0.214234       0.000018
      9 C                    -0.616997       0.001123
     10 H                     0.206866       0.001562
     11 H                     0.212537      -0.002602
     12 O                    -0.319301      -0.000986
     13 H                     0.272625      -0.000131
     14 C                    -0.490193       0.907107
     15 H                     0.178440      -0.029694
     16 H                     0.158739      -0.025741
     17 H                     0.178493      -0.031772
  --------------------------------------------------------
  Sum of atomic charges =     0.000000

                    Cartesian Multipole Moments
 -----------------------------------------------------------------
    Charge (ESU x 10^10)
                 0.0000
    Dipole Moment (Debye)
         X       0.2376      Y      -1.0775      Z      -0.9858
       Tot       1.4796
    Quadrupole Moments (Debye-Ang)
        XX     -37.4806     XY      -2.6174     YY     -42.3082
        XZ      -1.8963     YZ      -1.1745     ZZ     -39.4638

             Standard Nuclear Orientation (Angstroms)
    I     Atom           X                Y                Z
 ----------------------------------------------------------------
    1      C      -0.8902728643    -0.4025582259    -0.3590799720
    2      H      -1.0973732035    -0.2489961626    -1.4151596054
    3      C      -1.3858342913    -1.5258084233     0.2287284477
    4      H      -1.1092041609    -1.7986005251     1.2423878466
    5      H      -2.1382655077    -2.1363064516    -0.2566421466
    6      C       0.3167785701     0.3259789917     0.1886505680
    7      H       0.3038791525     0.3153072084     1.2826305574
    8      H       0.3212200292     1.3729294997    -0.1236877086
    9      C       1.6248673273    -0.3052622627    -0.2859411890
   10      H       1.6369666569    -0.3491704693    -1.3852912680
   11      H       1.6946759301    -1.3349929920     0.0905470753
   12      O       2.6926088529     0.5012352625     0.2067795558
   13      H       3.5214080836     0.1084744468    -0.0812315455
   14      C      -2.4742301092     1.2306936021     0.0281235878
   15      H      -2.3244992843     1.3873416200     1.0890237641
   16      H      -2.1083992671     2.0052041278    -0.6363253358
   17      H      -3.3891310474     0.7306655071    -0.2633767354
 ----------------------------------------------------------------

 Frequency:      -713.97                -181.15                 -43.51
 Force Cnst:      2.9822                 0.0199                 0.0023
 Red. Mass:       9.9293                 1.0290                 2.0804
 IR Intens:        0.833                  0.018                  0.533
 Frequency:        99.79                 121.47                 193.79
 Force Cnst:      0.0179                 0.0248                 0.0614
 Red. Mass:       3.0541                 2.8559                 2.7767
 IR Intens:        0.848                  0.900                  1.795
 Frequency:       293.69                 317.48                 351.48
 Force Cnst:      0.0901                 0.0650                 0.1421
 Red. Mass:       1.7735                 1.0943                 1.9528
 IR Intens:        1.666                120.468                  1.415
 Frequency:       411.59                 427.41                 463.16
 Force Cnst:      0.1285                 0.1759                 0.2120
 Red. Mass:       1.2874                 1.6346                 1.6775
 IR Intens:        3.382                  3.841                 13.918
 Frequency:       536.34                 764.43                 800.94
 Force Cnst:      0.2195                 0.3934                 0.4310
 Red. Mass:       1.2952                 1.1425                 1.1402
 IR Intens:        1.166                  0.847                 16.198
 Frequency:       873.28                 919.31                 967.20
 Force Cnst:      0.6160                 0.7387                 0.7802
 Red. Mass:       1.3711                 1.4835                 1.4155
 IR Intens:       54.908                  5.973                 13.203
 Frequency:       988.16                1021.62                1084.44
 Force Cnst:      0.7495                 1.4335                 3.6246
 Red. Mass:       1.3028                 2.3311                 5.2312
 IR Intens:       13.076                 12.743                100.765
 Frequency:      1153.31                1211.42                1216.34
 Force Cnst:      1.3876                 1.0372                 1.1025
 Red. Mass:       1.7706                 1.1996                 1.2648
 IR Intens:        0.812                 24.028                  1.699
 Frequency:      1259.66                1287.75                1297.78
 Force Cnst:      1.2412                 1.1245                 1.3733
 Red. Mass:       1.3277                 1.1510                 1.3839
 IR Intens:        2.778                  4.238                 28.360
 Frequency:      1384.36                1390.68                1413.13
 Force Cnst:      1.2357                 1.2459                 1.4901
 Red. Mass:       1.0943                 1.0934                 1.2665
 IR Intens:        2.433                  3.256                  2.978
 Frequency:      1424.70                1465.71                1499.90
 Force Cnst:      1.8066                 1.4003                 1.4422
 Red. Mass:       1.5107                 1.1063                 1.0881
 IR Intens:        5.175                  3.411                  3.747
 Frequency:      1564.29                2974.54                3013.12
 Force Cnst:      4.1857                 5.5072                 5.9175
 Red. Mass:       2.9032                 1.0564                 1.1063
 IR Intens:       12.152                 39.493                 24.801
 Frequency:      3041.11                3089.03                3103.70
 Force Cnst:      5.7768                 6.2018                 5.7484
 Red. Mass:       1.0602                 1.1031                 1.0128
 IR Intens:       15.997                 13.768                  2.398
 Frequency:      3119.75                3130.28                3221.53
 Force Cnst:      6.2306                 6.1160                 6.8228
 Red. Mass:       1.0865                 1.0594                 1.1158
 IR Intens:       11.338                  3.348                  9.680
 Frequency:      3266.20                3272.79                3923.54
 Force Cnst:      7.0115                 7.0391                 9.6733
 Red. Mass:       1.1155                 1.1154                 1.0665
 IR Intens:        5.129                  5.223                 58.855

 STANDARD THERMODYNAMIC QUANTITIES AT   298.15 K  AND     1.00 ATM

   This Molecule has  3 Imaginary Frequencies
   Zero point vibrational energy:       90.578 kcal/mol

   Atom    1 Element C  Has Mass   12.00000
   Atom    2 Element H  Has Mass    1.00783
   Atom    3 Element C  Has Mass   12.00000
   Atom    4 Element H  Has Mass    1.00783
   Atom    5 Element H  Has Mass    1.00783
   Atom    6 Element C  Has Mass   12.00000
   Atom    7 Element H  Has Mass    1.00783
   Atom    8 Element H  Has Mass    1.00783
   Atom    9 Element C  Has Mass   12.00000
   Atom   10 Element H  Has Mass    1.00783
   Atom   11 Element H  Has Mass    1.00783
   Atom   12 Element O  Has Mass   15.99491
   Atom   13 Element H  Has Mass    1.00783
   Atom   14 Element C  Has Mass   12.00000
   Atom   15 Element H  Has Mass    1.00783
   Atom   16 Element H  Has Mass    1.00783
   Atom   17 Element H  Has Mass    1.00783
   Molecular Mass:    87.081040 amu
   Principal axes and moments of inertia in amu*Bohr^2:
                             1           2           3
    Eigenvalues --      306.91819  1124.12775  1336.81194
          X               0.99975    -0.02178    -0.00530
          Y               0.02172     0.99970    -0.01124
          Z               0.00554     0.01113     0.99992
   Rotational Symmetry Number is   1
   The Molecule is an Asymmetric Top
   Translational Enthalpy:        0.889 kcal/mol
   Rotational Enthalpy:           0.889 kcal/mol
   Vibrational Enthalpy:         93.571 kcal/mol
   gas constant (RT):             0.592 kcal/mol
   Translational Entropy:        39.306  cal/mol.K
   Rotational Entropy:           27.624  cal/mol.K
   Vibrational Entropy:          17.188  cal/mol.K

   Total Enthalpy:               95.941 kcal/mol
   Total Entropy:                84.118  cal/mol.K

 Total job time:  73664.79s(wall), 47169.72s(cpu)
        *  Thank you very much for using Q-Chem.  Have a nice day.  *
