 Q-Chem 4.2, Q-Chem, Inc., Pleasanton, CA (2014).
 Q-Chem 4.2.0 for Intel X86 Linux

User input:
--------------------------------------------------------------
$rem
XC_GRID 000075000434
JOBTYPE ts
EXCHANGE M08SO
BASIS gen
GUI=2
UNRESTRICTED TRUE
CORRELATION NONE
$end

$comment
c5h11o-2
$end

$molecule
read iC5H11O-5_betasc_C3H6.out
$end

$basis
H  0
S  3 1.00
3.386500000000E+01 2.549380000000E-02
5.094790000000E+00 1.903730000000E-01
1.158790000000E+00 8.521610000000E-01
S  1 1.00
3.258400000000E-01 1.000000000000E+00
S  1 1.00
1.027410000000E-01 1.000000000000E+00
S  1 1.00
3.600000000000E-02 1.000000000000E+00
P  1 1.00
1.500000000000E+00 1.000000000000E+00
P  1 1.00
3.750000000000E-01 1.000000000000E+00
****
C 0
S  6 1.00
4.563240000000E+03 1.966650000000E-03
6.820240000000E+02 1.523060000000E-02
1.549730000000E+02 7.612690000000E-02
4.445530000000E+01 2.608010000000E-01
1.302900000000E+01 6.164620000000E-01
1.827730000000E+00 2.210060000000E-01
S  3 1.00
2.096420000000E+01 1.146600000000E-01
4.803310000000E+00 9.199990000000E-01
1.459330000000E+00 -3.030680000000E-03
S  1 1.00
4.834560000000E-01 1.000000000000E+00
S  1 1.00
1.455850000000E-01 1.000000000000E+00
S  1 1.00
4.380000000000E-02 1.000000000000E+00
P  3 1.00
2.096420000000E+01 4.024870000000E-02
4.803310000000E+00 2.375940000000E-01
1.459330000000E+00 8.158540000000E-01
P  1 1.00
4.834560000000E-01 1.000000000000E+00
P  1 1.00
1.455850000000E-01 1.000000000000E+00
P  1 1.00
4.380000000000E-02 1.000000000000E+00
D  1 1.00
1.252000000000E+00 1.000000000000E+00
D  1 1.00
3.130000000000E-01 1.000000000000E+00
F  1 1.00
8.000000000000E-01 1.000000000000E+00
****
O  0
S  6 1.00
8.588500000000E+03 1.895150000000E-03
1.297230000000E+03 1.438590000000E-02
2.992960000000E+02 7.073200000000E-02
8.737710000000E+01 2.400010000000E-01
2.567890000000E+01 5.947970000000E-01
3.740040000000E+00 2.808020000000E-01
S  3 1.00
4.211750000000E+01 1.138890000000E-01
9.628370000000E+00 9.208110000000E-01
2.853320000000E+00 -3.274470000000E-03
S  1 1.00
9.056610000000E-01 1.000000000000E+00
S  1 1.00
2.556110000000E-01 1.000000000000E+00
S  1 1.00
8.450000000000E-02 1.000000000000E+00
P  3 1.00
4.211750000000E+01 3.651140000000E-02
9.628370000000E+00 2.371530000000E-01
2.853320000000E+00 8.197020000000E-01
P  1 1.00
9.056610000000E-01 1.000000000000E+00
P  1 1.00
2.556110000000E-01 1.000000000000E+00
P  1 1.00
8.450000000000E-02 1.000000000000E+00
D  1 1.00
2.584000000000E+00 1.000000000000E+00
D  1 1.00
6.460000000000E-01 1.000000000000E+00
F  1 1.00
1.400000000000E+00 1.000000000000E+00
****
$end

--------------------------------------------------------------

   22    -272.1513426173      9.40E-09 Convergence criterion met
 Total energy in the final basis set = -272.1513426173
   12    -272.1512356617      3.04E-09 Convergence criterion met
 Total energy in the final basis set = -272.1512356617
   12    -272.1512671252      7.81E-09 Convergence criterion met
 Total energy in the final basis set = -272.1512671252
   12    -272.1513101951      9.81E-09 Convergence criterion met
 Total energy in the final basis set = -272.1513101951
   13    -272.1513887307      5.49E-09 Convergence criterion met
 Total energy in the final basis set = -272.1513887307
   13    -272.1515985712      3.22E-09 Convergence criterion met
 Total energy in the final basis set = -272.1515985712
   13    -272.1516759335      8.32E-09 Convergence criterion met
 Total energy in the final basis set = -272.1516759335
   13    -272.1517896544      3.87E-09 Convergence criterion met
 **  OPTIMIZATION CONVERGED  **
 Total job time:  23461.01s(wall), 23238.56s(cpu)
        *  Thank you very much for using Q-Chem.  Have a nice day.  *
 Q-Chem 4.2, Q-Chem, Inc., Pleasanton, CA (2014).
 Q-Chem 4.2.0 for Intel X86 Linux

User input:
--------------------------------------------------------------

$molecule
READ
$end

$rem
JOBTYPE Freq
XC_GRID 000075000434
EXCHANGE M08SO
BASIS gen
GUI=2
SCF_GUESS READ
$end

$basis
H  0
S  3 1.00
3.386500000000E+01 2.549380000000E-02
5.094790000000E+00 1.903730000000E-01
1.158790000000E+00 8.521610000000E-01
S  1 1.00
3.258400000000E-01 1.000000000000E+00
S  1 1.00
1.027410000000E-01 1.000000000000E+00
S  1 1.00
3.600000000000E-02 1.000000000000E+00
P  1 1.00
1.500000000000E+00 1.000000000000E+00
P  1 1.00
3.750000000000E-01 1.000000000000E+00
****
C 0
S  6 1.00
4.563240000000E+03 1.966650000000E-03
6.820240000000E+02 1.523060000000E-02
1.549730000000E+02 7.612690000000E-02
4.445530000000E+01 2.608010000000E-01
1.302900000000E+01 6.164620000000E-01
1.827730000000E+00 2.210060000000E-01
S  3 1.00
2.096420000000E+01 1.146600000000E-01
4.803310000000E+00 9.199990000000E-01
1.459330000000E+00 -3.030680000000E-03
S  1 1.00
4.834560000000E-01 1.000000000000E+00
S  1 1.00
1.455850000000E-01 1.000000000000E+00
S  1 1.00
4.380000000000E-02 1.000000000000E+00
P  3 1.00
2.096420000000E+01 4.024870000000E-02
4.803310000000E+00 2.375940000000E-01
1.459330000000E+00 8.158540000000E-01
P  1 1.00
4.834560000000E-01 1.000000000000E+00
P  1 1.00
1.455850000000E-01 1.000000000000E+00
P  1 1.00
4.380000000000E-02 1.000000000000E+00
D  1 1.00
1.252000000000E+00 1.000000000000E+00
D  1 1.00
3.130000000000E-01 1.000000000000E+00
F  1 1.00
8.000000000000E-01 1.000000000000E+00
****
O  0
S  6 1.00
8.588500000000E+03 1.895150000000E-03
1.297230000000E+03 1.438590000000E-02
2.992960000000E+02 7.073200000000E-02
8.737710000000E+01 2.400010000000E-01
2.567890000000E+01 5.947970000000E-01
3.740040000000E+00 2.808020000000E-01
S  3 1.00
4.211750000000E+01 1.138890000000E-01
9.628370000000E+00 9.208110000000E-01
2.853320000000E+00 -3.274470000000E-03
S  1 1.00
9.056610000000E-01 1.000000000000E+00
S  1 1.00
2.556110000000E-01 1.000000000000E+00
S  1 1.00
8.450000000000E-02 1.000000000000E+00
P  3 1.00
4.211750000000E+01 3.651140000000E-02
9.628370000000E+00 2.371530000000E-01
2.853320000000E+00 8.197020000000E-01
P  1 1.00
9.056610000000E-01 1.000000000000E+00
P  1 1.00
2.556110000000E-01 1.000000000000E+00
P  1 1.00
8.450000000000E-02 1.000000000000E+00
D  1 1.00
2.584000000000E+00 1.000000000000E+00
D  1 1.00
6.460000000000E-01 1.000000000000E+00
F  1 1.00
1.400000000000E+00 1.000000000000E+00
****
--------------------------------------------------------------

 Total energy in the final basis set = -272.1522968979
    7    -272.1522972406      8.54E-09 Convergence criterion met
 Total energy in the final basis set = -272.1522972406
    7    -272.1522971982      7.26E-09 Convergence criterion met
 Total energy in the final basis set = -272.1522971982
    8    -272.1522971667      3.80E-09 Convergence criterion met
 Total energy in the final basis set = -272.1522971667
    8    -272.1522963568      3.60E-09 Convergence criterion met
 Total energy in the final basis set = -272.1522963568
    8    -272.1522968013      5.18E-09 Convergence criterion met
 Total energy in the final basis set = -272.1522968013
    8    -272.1522971660      3.22E-09 Convergence criterion met
 Total energy in the final basis set = -272.1522971660
    8    -272.1522969105      3.31E-09 Convergence criterion met
 Total energy in the final basis set = -272.1522969105

                    Orbital Energies (a.u.)
 --------------------------------------------------------------

 Alpha MOs
 -- Occupied --
-19.569 -10.552 -10.510 -10.508 -10.491 -10.486  -1.141  -0.891
 -0.839  -0.774  -0.710  -0.640  -0.586  -0.550  -0.545  -0.519
 -0.486  -0.484  -0.457  -0.439  -0.422  -0.411  -0.375  -0.351
 -0.234

 Beta MOs
 -- Occupied --
-19.569 -10.552 -10.512 -10.496 -10.491 -10.479  -1.141  -0.887
 -0.832  -0.770  -0.700  -0.635  -0.580  -0.545  -0.542  -0.515
 -0.485  -0.483  -0.454  -0.437  -0.418  -0.409  -0.371  -0.316

          Ground-State Mulliken Net Atomic Charges

     Atom                 Charge (a.u.)    Spin (a.u.)
  --------------------------------------------------------
      1 C                    -0.538912       0.491350
      2 C                     0.153051      -0.232685
      3 C                    -0.802261       0.031248
      4 H                     0.321939       0.018245
      5 H                     0.186389      -0.025986
      6 H                     0.169745      -0.024819
      7 H                     0.184126       0.001937
      8 H                     0.187381      -0.003561
      9 H                     0.183935      -0.004162
     10 C                    -0.395004       0.799473
     11 C                    -0.516353      -0.044027
     12 O                    -0.307400       0.004541
     13 H                     0.217898      -0.034305
     14 H                     0.229594      -0.034112
     15 H                     0.190170       0.043496
     16 H                     0.252433       0.013437
     17 H                     0.283269      -0.000070
  --------------------------------------------------------
  Sum of atomic charges =     0.000000

                    Cartesian Multipole Moments
 -----------------------------------------------------------------
    Charge (ESU x 10^10)
                 0.0000
    Dipole Moment (Debye)
         X      -0.3121      Y       0.1035      Z      -1.5391
       Tot       1.5738
    Quadrupole Moments (Debye-Ang)
        XX     -40.8997     XY       2.6183     YY     -37.0719
        XZ       2.3185     YZ       0.6369     ZZ     -42.9269

             Standard Nuclear Orientation (Angstroms)
    I     Atom           X                Y                Z
 ----------------------------------------------------------------
    1      C       1.8841321300    -1.2236179225    -0.0529229568
    2      C       1.1151681141    -0.1877647395     0.3827255101
    3      C       1.5933430028     1.2433780321     0.2850143976
    4      H       0.3373028172    -0.3950661643     1.1215173391
    5      H       2.7590996359    -1.0496203023    -0.6790358390
    6      H       1.6176214045    -2.2567510409     0.1586967804
    7      H       2.3034274116     1.3575002333    -0.5439554260
    8      H       0.7676558467     1.9498439483     0.1321396535
    9      H       2.1051823574     1.5358201170     1.2118788621
   10      C      -0.5792616081    -0.0347599555    -1.0838995331
   11      C      -1.6825824318     0.4966043669    -0.2231516266
   12      O      -2.0995236778    -0.4312384660     0.7677483783
   13      H      -0.6694268080    -1.0670670145    -1.4248414899
   14      H      -0.1059508867     0.6479469950    -1.7900102616
   15      H      -2.5482052564     0.8106930763    -0.8389760224
   16      H      -1.3518011738     1.3920124318     0.3245804505
   17      H      -2.4035111681    -1.2384432407     0.3394241801
 ----------------------------------------------------------------

 Frequency:      -649.30                  72.55                 104.48
 Force Cnst:      2.1812                 0.0090                 0.0213
 Red. Mass:       8.7810                 2.8906                 3.3040
 IR Intens:        1.254                  1.951                  1.185
 Frequency:       161.06                 178.42                 240.98
 Force Cnst:      0.0213                 0.0351                 0.0660
 Red. Mass:       1.3910                 1.8710                 1.9278
 IR Intens:        4.971                  1.662                 16.366
 Frequency:       266.73                 304.70                 412.62
 Force Cnst:      0.0556                 0.0896                 0.2066
 Red. Mass:       1.3266                 1.6371                 2.0597
 IR Intens:       93.731                 15.718                  0.677
 Frequency:       435.19                 547.21                 584.78
 Force Cnst:      0.2340                 0.1915                 0.2534
 Red. Mass:       2.0967                 1.0854                 1.2577
 IR Intens:       14.559                  2.832                  3.709
 Frequency:       767.01                 850.05                 868.52
 Force Cnst:      0.3762                 0.5781                 0.6812
 Red. Mass:       1.0854                 1.3578                 1.5327
 IR Intens:       11.523                 47.903                 14.242
 Frequency:       904.31                 928.14                 962.87
 Force Cnst:      1.0895                 0.5890                 0.8771
 Red. Mass:       2.2612                 1.1604                 1.6057
 IR Intens:        1.968                  2.162                 12.103
 Frequency:      1018.22                1043.62                1060.00
 Force Cnst:      0.7153                 0.8430                 1.1369
 Red. Mass:       1.1709                 1.3137                 1.7173
 IR Intens:       12.797                  8.248                 36.571
 Frequency:      1124.08                1170.51                1215.77
 Force Cnst:      2.7104                 1.4433                 1.0797
 Red. Mass:       3.6407                 1.7880                 1.2398
 IR Intens:       81.897                  0.283                 15.811
 Frequency:      1276.27                1334.15                1381.18
 Force Cnst:      1.3191                 1.3225                 1.3787
 Red. Mass:       1.3745                 1.2611                 1.2267
 IR Intens:        2.400                 14.938                  4.234
 Frequency:      1393.40                1422.30                1436.72
 Force Cnst:      1.4134                 1.5721                 1.4882
 Red. Mass:       1.2356                 1.3190                 1.2237
 IR Intens:       32.603                  6.151                  9.154
 Frequency:      1460.55                1474.05                1479.79
 Force Cnst:      1.3233                 1.3520                 1.3912
 Red. Mass:       1.0528                 1.0561                 1.0783
 IR Intens:        2.162                 12.211                  3.853
 Frequency:      1568.81                2923.06                2982.37
 Force Cnst:      3.7984                 5.3942                 5.4294
 Red. Mass:       2.6194                 1.0715                 1.0361
 IR Intens:        9.109                 55.979                 24.130
 Frequency:      3005.13                3042.40                3056.48
 Force Cnst:      5.7886                 5.9971                 6.0602
 Red. Mass:       1.0879                 1.0997                 1.1010
 IR Intens:       19.117                 13.468                 17.982
 Frequency:      3081.09                3085.77                3087.09
 Force Cnst:      5.8955                 5.9932                 6.0553
 Red. Mass:       1.0541                 1.0683                 1.0784
 IR Intens:        5.422                  6.536                  2.985
 Frequency:      3176.40                3179.97                3897.23
 Force Cnst:      6.6329                 6.6469                 9.5430
 Red. Mass:       1.1158                 1.1156                 1.0664
 IR Intens:        9.738                 11.453                 45.248

 STANDARD THERMODYNAMIC QUANTITIES AT   298.15 K  AND     1.00 ATM

   This Molecule has  1 Imaginary Frequencies
   Zero point vibrational energy:       91.444 kcal/mol

   Atom    1 Element C  Has Mass   12.00000
   Atom    2 Element C  Has Mass   12.00000
   Atom    3 Element C  Has Mass   12.00000
   Atom    4 Element H  Has Mass    1.00783
   Atom    5 Element H  Has Mass    1.00783
   Atom    6 Element H  Has Mass    1.00783
   Atom    7 Element H  Has Mass    1.00783
   Atom    8 Element H  Has Mass    1.00783
   Atom    9 Element H  Has Mass    1.00783
   Atom   10 Element C  Has Mass   12.00000
   Atom   11 Element C  Has Mass   12.00000
   Atom   12 Element O  Has Mass   15.99491
   Atom   13 Element H  Has Mass    1.00783
   Atom   14 Element H  Has Mass    1.00783
   Atom   15 Element H  Has Mass    1.00783
   Atom   16 Element H  Has Mass    1.00783
   Atom   17 Element H  Has Mass    1.00783
   Molecular Mass:    87.081040 amu
   Principal axes and moments of inertia in amu*Bohr^2:
                             1           2           3
    Eigenvalues --      355.80292   958.76703  1053.53859
          X               0.99993     0.00489     0.01091
          Y              -0.00529     0.99932     0.03643
          Z              -0.01072    -0.03648     0.99928
   Rotational Symmetry Number is   1
   The Molecule is an Asymmetric Top
   Translational Enthalpy:        0.889 kcal/mol
   Rotational Enthalpy:           0.889 kcal/mol
   Vibrational Enthalpy:         94.975 kcal/mol
   gas constant (RT):             0.592 kcal/mol
   Translational Entropy:        39.306  cal/mol.K
   Rotational Entropy:           27.377  cal/mol.K
   Vibrational Entropy:          21.412  cal/mol.K

   Total Enthalpy:               97.345 kcal/mol
   Total Entropy:                88.094  cal/mol.K

 Total job time:  55202.41s(wall), 54630.73s(cpu)
        *  Thank you very much for using Q-Chem.  Have a nice day.  *
