 Q-Chem 4.2, Q-Chem, Inc., Pleasanton, CA (2014).
 Q-Chem 4.2.0 for Intel X86 Linux

User input:
--------------------------------------------------------------
$rem
XC_GRID 000075000434
JOBTYPE ts
EXCHANGE M08SO
incdft false
varthresh false
BASIS gen
GUI=2
UNRESTRICTED TRUE
CORRELATION NONE
$end

$comment
c5h11o-2
$end

$molecule
read iC5H11O-2_betasc_CH2CHOH.out
$end

$basis
H  0
S  3 1.00
3.386500000000E+01 2.549380000000E-02
5.094790000000E+00 1.903730000000E-01
1.158790000000E+00 8.521610000000E-01
S  1 1.00
3.258400000000E-01 1.000000000000E+00
S  1 1.00
1.027410000000E-01 1.000000000000E+00
S  1 1.00
3.600000000000E-02 1.000000000000E+00
P  1 1.00
1.500000000000E+00 1.000000000000E+00
P  1 1.00
3.750000000000E-01 1.000000000000E+00
****
C 0
S  6 1.00
4.563240000000E+03 1.966650000000E-03
6.820240000000E+02 1.523060000000E-02
1.549730000000E+02 7.612690000000E-02
4.445530000000E+01 2.608010000000E-01
1.302900000000E+01 6.164620000000E-01
1.827730000000E+00 2.210060000000E-01
S  3 1.00
2.096420000000E+01 1.146600000000E-01
4.803310000000E+00 9.199990000000E-01
1.459330000000E+00 -3.030680000000E-03
S  1 1.00
4.834560000000E-01 1.000000000000E+00
S  1 1.00
1.455850000000E-01 1.000000000000E+00
S  1 1.00
4.380000000000E-02 1.000000000000E+00
P  3 1.00
2.096420000000E+01 4.024870000000E-02
4.803310000000E+00 2.375940000000E-01
1.459330000000E+00 8.158540000000E-01
P  1 1.00
4.834560000000E-01 1.000000000000E+00
P  1 1.00
1.455850000000E-01 1.000000000000E+00
P  1 1.00
4.380000000000E-02 1.000000000000E+00
D  1 1.00
1.252000000000E+00 1.000000000000E+00
D  1 1.00
3.130000000000E-01 1.000000000000E+00
F  1 1.00
8.000000000000E-01 1.000000000000E+00
****
O  0
S  6 1.00
8.588500000000E+03 1.895150000000E-03
1.297230000000E+03 1.438590000000E-02
2.992960000000E+02 7.073200000000E-02
8.737710000000E+01 2.400010000000E-01
2.567890000000E+01 5.947970000000E-01
3.740040000000E+00 2.808020000000E-01
S  3 1.00
4.211750000000E+01 1.138890000000E-01
9.628370000000E+00 9.208110000000E-01
2.853320000000E+00 -3.274470000000E-03
S  1 1.00
9.056610000000E-01 1.000000000000E+00
S  1 1.00
2.556110000000E-01 1.000000000000E+00
S  1 1.00
8.450000000000E-02 1.000000000000E+00
P  3 1.00
4.211750000000E+01 3.651140000000E-02
9.628370000000E+00 2.371530000000E-01
2.853320000000E+00 8.197020000000E-01
P  1 1.00
9.056610000000E-01 1.000000000000E+00
P  1 1.00
2.556110000000E-01 1.000000000000E+00
P  1 1.00
8.450000000000E-02 1.000000000000E+00
D  1 1.00
2.584000000000E+00 1.000000000000E+00
D  1 1.00
6.460000000000E-01 1.000000000000E+00
F  1 1.00
1.400000000000E+00 1.000000000000E+00
****
$end

--------------------------------------------------------------

   23    -272.1654585433      2.07E-09 Convergence criterion met
 Total energy in the final basis set = -272.1654585433
   11    -272.1653342106      9.59E-09 Convergence criterion met
 Total energy in the final basis set = -272.1653342106
   11    -272.1653006544      9.16E-09 Convergence criterion met
 Total energy in the final basis set = -272.1653006544
   11    -272.1652514932      6.74E-09 Convergence criterion met
 Total energy in the final basis set = -272.1652514932
   13    -272.1651854822      5.29E-09 Convergence criterion met
 Total energy in the final basis set = -272.1651854822
   13    -272.1651045254      5.93E-09 Convergence criterion met
 Total energy in the final basis set = -272.1651045254
   13    -272.1650520525      8.09E-09 Convergence criterion met
 Total energy in the final basis set = -272.1650520525
   13    -272.1653993101      6.08E-09 Convergence criterion met
 **  OPTIMIZATION CONVERGED  **
 Total job time:  17054.70s(wall), 16887.43s(cpu)
        *  Thank you very much for using Q-Chem.  Have a nice day.  *
 Q-Chem 4.2, Q-Chem, Inc., Pleasanton, CA (2014).
 Q-Chem 4.2.0 for Intel X86 Linux

User input:
--------------------------------------------------------------

$molecule
READ
$end

$rem
JOBTYPE Freq
XC_GRID 000075000434
EXCHANGE M08SO
BASIS gen
GUI=2
SCF_GUESS READ
$end

$basis
H  0
S  3 1.00
3.386500000000E+01 2.549380000000E-02
5.094790000000E+00 1.903730000000E-01
1.158790000000E+00 8.521610000000E-01
S  1 1.00
3.258400000000E-01 1.000000000000E+00
S  1 1.00
1.027410000000E-01 1.000000000000E+00
S  1 1.00
3.600000000000E-02 1.000000000000E+00
P  1 1.00
1.500000000000E+00 1.000000000000E+00
P  1 1.00
3.750000000000E-01 1.000000000000E+00
****
C 0
S  6 1.00
4.563240000000E+03 1.966650000000E-03
6.820240000000E+02 1.523060000000E-02
1.549730000000E+02 7.612690000000E-02
4.445530000000E+01 2.608010000000E-01
1.302900000000E+01 6.164620000000E-01
1.827730000000E+00 2.210060000000E-01
S  3 1.00
2.096420000000E+01 1.146600000000E-01
4.803310000000E+00 9.199990000000E-01
1.459330000000E+00 -3.030680000000E-03
S  1 1.00
4.834560000000E-01 1.000000000000E+00
S  1 1.00
1.455850000000E-01 1.000000000000E+00
S  1 1.00
4.380000000000E-02 1.000000000000E+00
P  3 1.00
2.096420000000E+01 4.024870000000E-02
4.803310000000E+00 2.375940000000E-01
1.459330000000E+00 8.158540000000E-01
P  1 1.00
4.834560000000E-01 1.000000000000E+00
P  1 1.00
1.455850000000E-01 1.000000000000E+00
P  1 1.00
4.380000000000E-02 1.000000000000E+00
D  1 1.00
1.252000000000E+00 1.000000000000E+00
D  1 1.00
3.130000000000E-01 1.000000000000E+00
F  1 1.00
8.000000000000E-01 1.000000000000E+00
****
O  0
S  6 1.00
8.588500000000E+03 1.895150000000E-03
1.297230000000E+03 1.438590000000E-02
2.992960000000E+02 7.073200000000E-02
8.737710000000E+01 2.400010000000E-01
2.567890000000E+01 5.947970000000E-01
3.740040000000E+00 2.808020000000E-01
S  3 1.00
4.211750000000E+01 1.138890000000E-01
9.628370000000E+00 9.208110000000E-01
2.853320000000E+00 -3.274470000000E-03
S  1 1.00
9.056610000000E-01 1.000000000000E+00
S  1 1.00
2.556110000000E-01 1.000000000000E+00
S  1 1.00
8.450000000000E-02 1.000000000000E+00
P  3 1.00
4.211750000000E+01 3.651140000000E-02
9.628370000000E+00 2.371530000000E-01
2.853320000000E+00 8.197020000000E-01
P  1 1.00
9.056610000000E-01 1.000000000000E+00
P  1 1.00
2.556110000000E-01 1.000000000000E+00
P  1 1.00
8.450000000000E-02 1.000000000000E+00
D  1 1.00
2.584000000000E+00 1.000000000000E+00
D  1 1.00
6.460000000000E-01 1.000000000000E+00
F  1 1.00
1.400000000000E+00 1.000000000000E+00
****
--------------------------------------------------------------

 Total energy in the final basis set = -272.1664301685
    8    -272.1664301658      7.44E-09 Convergence criterion met
 Total energy in the final basis set = -272.1664301658
    8    -272.1664304713      5.15E-09 Convergence criterion met
 Total energy in the final basis set = -272.1664304713
    8    -272.1664303384      4.78E-09 Convergence criterion met
 Total energy in the final basis set = -272.1664303384
    8    -272.1664305095      4.26E-09 Convergence criterion met
 Total energy in the final basis set = -272.1664305095
    8    -272.1664305296      5.29E-09 Convergence criterion met
 Total energy in the final basis set = -272.1664305296
    7    -272.1664299773      9.57E-09 Convergence criterion met
 Total energy in the final basis set = -272.1664299773
    8    -272.1664299112      5.95E-09 Convergence criterion met
 Total energy in the final basis set = -272.1664299112

                    Orbital Energies (a.u.)
 --------------------------------------------------------------

 Alpha MOs
 -- Occupied --
-19.595 -10.551 -10.507 -10.495 -10.489 -10.488  -1.174  -0.887
 -0.843  -0.783  -0.711  -0.653  -0.579  -0.568  -0.530  -0.515
 -0.487  -0.478  -0.458  -0.454  -0.443  -0.417  -0.412  -0.334
 -0.208

 Beta MOs
 -- Occupied --
-19.592 -10.544 -10.499 -10.493 -10.490 -10.489  -1.168  -0.881
 -0.840  -0.782  -0.707  -0.641  -0.575  -0.564  -0.524  -0.498
 -0.478  -0.466  -0.455  -0.448  -0.443  -0.419  -0.413  -0.304

          Ground-State Mulliken Net Atomic Charges

     Atom                 Charge (a.u.)    Spin (a.u.)
  --------------------------------------------------------
      1 C                    -0.780381      -0.045469
      2 C                    -0.055635       0.724449
      3 C                    -0.625975      -0.030595
      4 H                     0.235965      -0.035464
      5 H                     0.213205       0.014791
      6 H                     0.192215       0.036285
      7 H                     0.234645       0.005497
      8 H                     0.191964       0.010463
      9 H                     0.192879       0.007100
     10 H                     0.187693       0.041090
     11 C                    -0.443501      -0.184450
     12 C                    -0.164281       0.410280
     13 O                    -0.268340       0.032799
     14 H                     0.206243       0.021704
     15 H                     0.191490       0.013199
     16 H                     0.209734      -0.021209
     17 H                     0.282082      -0.000469
  --------------------------------------------------------
  Sum of atomic charges =     0.000000

                    Cartesian Multipole Moments
 -----------------------------------------------------------------
    Charge (ESU x 10^10)
                 0.0000
    Dipole Moment (Debye)
         X      -1.2011      Y       0.1640      Z       0.5056
       Tot       1.3134
    Quadrupole Moments (Debye-Ang)
        XX     -45.4905     XY       0.3158     YY     -40.7406
        XZ       0.2055     YZ      -2.2340     ZZ     -37.6472

             Standard Nuclear Orientation (Angstroms)
    I     Atom           X                Y                Z
 ----------------------------------------------------------------
    1      C      -0.8197585290    -1.4775137708    -0.0748858106
    2      C      -1.2339837877    -0.1009790900    -0.4956191646
    3      C      -2.3115438130     0.5852129936     0.2878309995
    4      H      -1.1927527385     0.1136947563    -1.5645024593
    5      H      -0.6272750440    -1.5092124922     1.0112685248
    6      H      -1.6040289935    -2.2288230575    -0.2742403013
    7      H       0.0904429769    -1.8030265578    -0.5954718571
    8      H      -2.1008907794     0.5370693523     1.3681369307
    9      H      -2.4119507302     1.6426437256     0.0090663281
   10      H      -3.2976805281     0.1115551025     0.1375024124
   11      C       0.5666535048     1.0992774975     0.1326565102
   12      C       1.7215923970     0.5541153618    -0.3271678286
   13      O       2.3808743830    -0.4814372156     0.2660086104
   14      H       0.2443753651     0.9064487882     1.1584691332
   15      H       0.1936865173     2.0063792610    -0.3344519708
   16      H       2.1875710379     0.8456216917    -1.2646681677
   17      H       1.9337492195    -0.7315307981     1.0839343082
 ----------------------------------------------------------------

 Frequency:      -622.02                  43.30                 111.78
 Force Cnst:      1.8915                 0.0031                 0.0250
 Red. Mass:       8.2974                 2.8036                 3.3994
 IR Intens:        1.219                  0.521                  0.384
 Frequency:       169.02                 174.95                 205.05
 Force Cnst:      0.0190                 0.0344                 0.0322
 Red. Mass:       1.1266                 1.9075                 1.2995
 IR Intens:        0.050                  2.755                  0.113
 Frequency:       238.13                 265.41                 371.68
 Force Cnst:      0.0804                 0.0670                 0.1508
 Red. Mass:       2.4057                 1.6131                 1.8530
 IR Intens:        0.512                 18.205                 12.555
 Frequency:       425.05                 479.04                 698.94
 Force Cnst:      0.1566                 0.2678                 0.3015
 Red. Mass:       1.4710                 1.9809                 1.0477
 IR Intens:       66.065                 11.261                  0.692
 Frequency:       745.84                 833.58                 897.37
 Force Cnst:      0.5013                 0.5212                 0.7029
 Red. Mass:       1.5295                 1.2732                 1.4816
 IR Intens:       12.799                 27.340                 40.244
 Frequency:       900.60                 919.36                 938.92
 Force Cnst:      0.7760                 0.5718                 0.6501
 Red. Mass:       1.6238                 1.1481                 1.2517
 IR Intens:       15.103                  0.374                  0.676
 Frequency:       977.94                1068.87                1097.69
 Force Cnst:      0.7927                 1.0119                 1.2850
 Red. Mass:       1.4068                 1.5033                 1.8101
 IR Intens:       14.595                  6.369                212.615
 Frequency:      1147.38                1172.71                1275.52
 Force Cnst:      1.4832                 1.5166                 1.2845
 Red. Mass:       1.9122                 1.8717                 1.3400
 IR Intens:        0.593                  2.915                 16.451
 Frequency:      1310.75                1350.24                1397.17
 Force Cnst:      1.6391                 1.4124                 1.4681
 Red. Mass:       1.6193                 1.3149                 1.2765
 IR Intens:       11.376                  0.701                  7.624
 Frequency:      1400.47                1411.18                1451.61
 Force Cnst:      1.7958                 1.4032                 1.3128
 Red. Mass:       1.5540                 1.1959                 1.0575
 IR Intens:       10.504                 23.507                  0.811
 Frequency:      1463.92                1466.57                1474.64
 Force Cnst:      1.3291                 1.3495                 1.3341
 Red. Mass:       1.0526                 1.0649                 1.0413
 IR Intens:        6.264                  4.056                 13.896
 Frequency:      1578.41                2931.53                2935.19
 Force Cnst:      4.4874                 5.2676                 5.2976
 Red. Mass:       3.0571                 1.0403                 1.0437
 IR Intens:      119.108                 30.156                 64.700
 Frequency:      2972.99                2984.33                3036.07
 Force Cnst:      5.7170                 5.7306                 5.9589
 Red. Mass:       1.0978                 1.0921                 1.0972
 IR Intens:       37.434                 19.872                 20.543
 Frequency:      3038.16                3062.62                3111.66
 Force Cnst:      5.9625                 5.8746                 6.2086
 Red. Mass:       1.0964                 1.0630                 1.0883
 IR Intens:       13.186                  7.409                 24.029
 Frequency:      3150.32                3176.33                3857.60
 Force Cnst:      6.3837                 6.6015                 9.3423
 Red. Mass:       1.0917                 1.1106                 1.0655
 IR Intens:        1.939                  7.298                 39.276

 STANDARD THERMODYNAMIC QUANTITIES AT   298.15 K  AND     1.00 ATM

   This Molecule has  1 Imaginary Frequencies
   Zero point vibrational energy:       91.092 kcal/mol

   Atom    1 Element C  Has Mass   12.00000
   Atom    2 Element C  Has Mass   12.00000
   Atom    3 Element C  Has Mass   12.00000
   Atom    4 Element H  Has Mass    1.00783
   Atom    5 Element H  Has Mass    1.00783
   Atom    6 Element H  Has Mass    1.00783
   Atom    7 Element H  Has Mass    1.00783
   Atom    8 Element H  Has Mass    1.00783
   Atom    9 Element H  Has Mass    1.00783
   Atom   10 Element H  Has Mass    1.00783
   Atom   11 Element C  Has Mass   12.00000
   Atom   12 Element C  Has Mass   12.00000
   Atom   13 Element O  Has Mass   15.99491
   Atom   14 Element H  Has Mass    1.00783
   Atom   15 Element H  Has Mass    1.00783
   Atom   16 Element H  Has Mass    1.00783
   Atom   17 Element H  Has Mass    1.00783
   Molecular Mass:    87.081040 amu
   Principal axes and moments of inertia in amu*Bohr^2:
                             1           2           3
    Eigenvalues --      317.06652   968.35135  1166.16116
          X               0.99996    -0.00118    -0.00932
          Y               0.00106     0.99991    -0.01321
          Z               0.00933     0.01320     0.99987
   Rotational Symmetry Number is   1
   The Molecule is an Asymmetric Top
   Translational Enthalpy:        0.889 kcal/mol
   Rotational Enthalpy:           0.889 kcal/mol
   Vibrational Enthalpy:         94.766 kcal/mol
   gas constant (RT):             0.592 kcal/mol
   Translational Entropy:        39.306  cal/mol.K
   Rotational Entropy:           27.373  cal/mol.K
   Vibrational Entropy:          23.161  cal/mol.K

   Total Enthalpy:               97.136 kcal/mol
   Total Entropy:                89.840  cal/mol.K

 Total job time:  56251.14s(wall), 55744.69s(cpu)
        *  Thank you very much for using Q-Chem.  Have a nice day.  *
