User input:
--------------------------------------------------------------
$rem
JOBTYPE ts
EXCHANGE M062X
BASIS gen
GUI=2
UNRESTRICTED TRUE
CORRELATION NONE
$end

$comment
c5h11o-2
$end

$molecule
0 2
C       -1.96916       -1.17196       -0.03359
C       -1.15628       -0.13419       -0.38429
C       -1.57270        1.30426       -0.18552
H       -0.40152       -0.30810       -1.14560
H       -2.82773       -1.02584        0.61430
H       -1.74510       -2.19040       -0.32958
H       -2.23665        1.41013        0.67658
H       -0.71873        1.97064       -0.04490
H       -2.11452        1.66241       -1.06806
C        0.60567       -0.24388        1.06325
C        1.75959        0.38629        0.34963
O        2.09050       -0.25185       -0.88566
H        0.65790       -1.31842        1.21942
H        0.17954        0.30524        1.89800
H        2.64749        0.41253        1.00839
H        1.54049        1.42659        0.09265
H        2.29205       -1.17320       -0.69280
$end

$basis
H  0
S  3 1.00
3.386500000000E+01 2.549380000000E-02
5.094790000000E+00 1.903730000000E-01
1.158790000000E+00 8.521610000000E-01
S  1 1.00
3.258400000000E-01 1.000000000000E+00
S  1 1.00
1.027410000000E-01 1.000000000000E+00
S  1 1.00
3.600000000000E-02 1.000000000000E+00
P  1 1.00
1.500000000000E+00 1.000000000000E+00
P  1 1.00
3.750000000000E-01 1.000000000000E+00
****
C 0
S  6 1.00
4.563240000000E+03 1.966650000000E-03
6.820240000000E+02 1.523060000000E-02
1.549730000000E+02 7.612690000000E-02
4.445530000000E+01 2.608010000000E-01
1.302900000000E+01 6.164620000000E-01
1.827730000000E+00 2.210060000000E-01
S  3 1.00
2.096420000000E+01 1.146600000000E-01
4.803310000000E+00 9.199990000000E-01
1.459330000000E+00 -3.030680000000E-03
S  1 1.00
4.834560000000E-01 1.000000000000E+00
S  1 1.00
1.455850000000E-01 1.000000000000E+00
S  1 1.00
4.380000000000E-02 1.000000000000E+00
P  3 1.00
2.096420000000E+01 4.024870000000E-02
4.803310000000E+00 2.375940000000E-01
1.459330000000E+00 8.158540000000E-01
P  1 1.00
4.834560000000E-01 1.000000000000E+00
P  1 1.00
1.455850000000E-01 1.000000000000E+00
P  1 1.00
4.380000000000E-02 1.000000000000E+00
D  1 1.00
1.252000000000E+00 1.000000000000E+00
D  1 1.00
3.130000000000E-01 1.000000000000E+00
F  1 1.00
8.000000000000E-01 1.000000000000E+00
****
O  0
S  6 1.00
8.588500000000E+03 1.895150000000E-03
1.297230000000E+03 1.438590000000E-02
2.992960000000E+02 7.073200000000E-02
8.737710000000E+01 2.400010000000E-01
2.567890000000E+01 5.947970000000E-01
3.740040000000E+00 2.808020000000E-01
S  3 1.00
4.211750000000E+01 1.138890000000E-01
9.628370000000E+00 9.208110000000E-01
2.853320000000E+00 -3.274470000000E-03
S  1 1.00
9.056610000000E-01 1.000000000000E+00
S  1 1.00
2.556110000000E-01 1.000000000000E+00
S  1 1.00
8.450000000000E-02 1.000000000000E+00
P  3 1.00
4.211750000000E+01 3.651140000000E-02
9.628370000000E+00 2.371530000000E-01
2.853320000000E+00 8.197020000000E-01
P  1 1.00
9.056610000000E-01 1.000000000000E+00
P  1 1.00
2.556110000000E-01 1.000000000000E+00
P  1 1.00
8.450000000000E-02 1.000000000000E+00
D  1 1.00
2.584000000000E+00 1.000000000000E+00
D  1 1.00
6.460000000000E-01 1.000000000000E+00
F  1 1.00
1.400000000000E+00 1.000000000000E+00
****
$end

--------------------------------------------------------------

   22    -272.2183993999      9.04E-09 Convergence criterion met
 Total energy in the final basis set = -272.2183993999
   11    -272.2182992012      7.88E-09 Convergence criterion met
 Total energy in the final basis set = -272.2182992012
   12    -272.2183486423      3.98E-09 Convergence criterion met
 Total energy in the final basis set = -272.2183486423
   12    -272.2184791672      5.92E-09 Convergence criterion met
 Total energy in the final basis set = -272.2184791672
   11    -272.2187288901      6.06E-09 Convergence criterion met
 Total energy in the final basis set = -272.2187288901
   12    -272.2188129166      6.07E-09 Convergence criterion met
 Total energy in the final basis set = -272.2188129166
   12    -272.2189407139      7.15E-09 Convergence criterion met
 Total energy in the final basis set = -272.2189407139
   12    -272.2191139561      7.85E-09 Convergence criterion met
 **  OPTIMIZATION CONVERGED  **
 Total job time:  7320.20s(wall), 6972.06s(cpu)
        *  Thank you very much for using Q-Chem.  Have a nice day.  *

User input:
--------------------------------------------------------------

$molecule
READ
$end

$rem
JOBTYPE Freq
EXCHANGE M062X
BASIS gen
GUI=2
SCF_GUESS READ
$end

$basis
H  0
S  3 1.00
3.386500000000E+01 2.549380000000E-02
5.094790000000E+00 1.903730000000E-01
1.158790000000E+00 8.521610000000E-01
S  1 1.00
3.258400000000E-01 1.000000000000E+00
S  1 1.00
1.027410000000E-01 1.000000000000E+00
S  1 1.00
3.600000000000E-02 1.000000000000E+00
P  1 1.00
1.500000000000E+00 1.000000000000E+00
P  1 1.00
3.750000000000E-01 1.000000000000E+00
****
C 0
S  6 1.00
4.563240000000E+03 1.966650000000E-03
6.820240000000E+02 1.523060000000E-02
1.549730000000E+02 7.612690000000E-02
4.445530000000E+01 2.608010000000E-01
1.302900000000E+01 6.164620000000E-01
1.827730000000E+00 2.210060000000E-01
S  3 1.00
2.096420000000E+01 1.146600000000E-01
4.803310000000E+00 9.199990000000E-01
1.459330000000E+00 -3.030680000000E-03
S  1 1.00
4.834560000000E-01 1.000000000000E+00
S  1 1.00
1.455850000000E-01 1.000000000000E+00
S  1 1.00
4.380000000000E-02 1.000000000000E+00
P  3 1.00
2.096420000000E+01 4.024870000000E-02
4.803310000000E+00 2.375940000000E-01
1.459330000000E+00 8.158540000000E-01
P  1 1.00
4.834560000000E-01 1.000000000000E+00
P  1 1.00
1.455850000000E-01 1.000000000000E+00
P  1 1.00
4.380000000000E-02 1.000000000000E+00
D  1 1.00
1.252000000000E+00 1.000000000000E+00
D  1 1.00
3.130000000000E-01 1.000000000000E+00
F  1 1.00
8.000000000000E-01 1.000000000000E+00
****
O  0
S  6 1.00
8.588500000000E+03 1.895150000000E-03
1.297230000000E+03 1.438590000000E-02
2.992960000000E+02 7.073200000000E-02
8.737710000000E+01 2.400010000000E-01
2.567890000000E+01 5.947970000000E-01
3.740040000000E+00 2.808020000000E-01
S  3 1.00
4.211750000000E+01 1.138890000000E-01
9.628370000000E+00 9.208110000000E-01
2.853320000000E+00 -3.274470000000E-03
S  1 1.00
9.056610000000E-01 1.000000000000E+00
S  1 1.00
2.556110000000E-01 1.000000000000E+00
S  1 1.00
8.450000000000E-02 1.000000000000E+00
P  3 1.00
4.211750000000E+01 3.651140000000E-02
9.628370000000E+00 2.371530000000E-01
2.853320000000E+00 8.197020000000E-01
P  1 1.00
9.056610000000E-01 1.000000000000E+00
P  1 1.00
2.556110000000E-01 1.000000000000E+00
P  1 1.00
8.450000000000E-02 1.000000000000E+00
D  1 1.00
2.584000000000E+00 1.000000000000E+00
D  1 1.00
6.460000000000E-01 1.000000000000E+00
F  1 1.00
1.400000000000E+00 1.000000000000E+00
****
--------------------------------------------------------------

 Total energy in the final basis set = -272.2191729974
    7    -272.2191738160      7.82E-09 Convergence criterion met
 Total energy in the final basis set = -272.2191738160
    7    -272.2191730214      7.16E-09 Convergence criterion met
 Total energy in the final basis set = -272.2191730214
    8    -272.2191740987      3.19E-09 Convergence criterion met
 Total energy in the final basis set = -272.2191740987
    8    -272.2191726279      3.25E-09 Convergence criterion met
 Total energy in the final basis set = -272.2191726279
    8    -272.2191731764      4.38E-09 Convergence criterion met
 Total energy in the final basis set = -272.2191731764
    8    -272.2191737345      2.83E-09 Convergence criterion met
 Total energy in the final basis set = -272.2191737345
    8    -272.2191729855      3.22E-09 Convergence criterion met
 Total energy in the final basis set = -272.2191729855

                    Orbital Energies (a.u.)
 --------------------------------------------------------------

 Alpha MOs
 -- Occupied --
-19.625 -10.589 -10.546 -10.545 -10.529 -10.522  -1.150  -0.891
 -0.842  -0.774  -0.709  -0.637  -0.579  -0.543  -0.540  -0.515
 -0.481  -0.479  -0.453  -0.432  -0.416  -0.404  -0.367  -0.343
 -0.226

 Beta MOs
 -- Occupied --
-19.625 -10.589 -10.548 -10.538 -10.529 -10.519  -1.150  -0.887
 -0.828  -0.769  -0.694  -0.632  -0.573  -0.538  -0.536  -0.507
 -0.479  -0.478  -0.445  -0.430  -0.410  -0.402  -0.360  -0.312

          Ground-State Mulliken Net Atomic Charges

     Atom                 Charge (a.u.)    Spin (a.u.)
  --------------------------------------------------------
      1 C                    -0.455917       0.503052
      2 C                     0.123679      -0.219904
      3 C                    -0.570012       0.028661
      4 H                     0.253042       0.021556
      5 H                     0.139674      -0.029584
      6 H                     0.123866      -0.030953
      7 H                     0.132612      -0.000965
      8 H                     0.127324      -0.004256
      9 H                     0.137684      -0.003205
     10 C                    -0.287258       0.787969
     11 C                    -0.335902      -0.033105
     12 O                    -0.287424       0.005109
     13 H                     0.164428      -0.033744
     14 H                     0.161823      -0.035114
     15 H                     0.138922       0.033226
     16 H                     0.186681       0.011987
     17 H                     0.246778      -0.000730
  --------------------------------------------------------
  Sum of atomic charges =     0.000000

                    Cartesian Multipole Moments
 -----------------------------------------------------------------
    Charge (ESU x 10^10)
                 0.0000
    Dipole Moment (Debye)
         X      -0.2296      Y       0.1059      Z      -1.5362
       Tot       1.5568
    Quadrupole Moments (Debye-Ang)
        XX     -40.9699     XY       2.4981     YY     -36.6518
        XZ       2.3950     YZ       0.7025     ZZ     -42.2370
    Octapole Moments (Debye-Ang^2)
       XXX     -11.6484    XXY      -3.2614    XYY     -10.3671
       YYY      -6.9223    XXZ     -10.8046    XYZ       0.3334
       YYZ       1.4819    XZZ       0.5852    YZZ       2.1852
       ZZZ       2.4634
    Hexadecapole Moments (Debye-Ang^3)
      XXXX    -698.8515   XXXY      27.2203   XXYY    -142.5141
      XYYY      12.3418   YYYY    -233.6073   XXXZ       2.3581
      XXYZ       4.8679   XYYZ      -3.9165   YYYZ      -2.1461
      XXZZ    -150.0814   XYZZ       4.5758   YYZZ     -66.4820

       Standard Nuclear Orientation (Angstroms)
    I     Atom         X            Y            Z
 ----------------------------------------------------
    1      C       1.873105    -1.232388    -0.071085
    2      C       1.131245    -0.192129     0.380605
    3      C       1.631343     1.226382     0.292789
    4      H       0.373978    -0.394755     1.130232
    5      H       2.729777    -1.073529    -0.713722
    6      H       1.599039    -2.255075     0.145759
    7      H       2.268328     1.354569    -0.581629
    8      H       0.822080     1.952979     0.237710
    9      H       2.223075     1.465789     1.177365
   10      C      -0.576151    -0.000682    -1.058519
   11      C      -1.701244     0.501099    -0.216143
   12      O      -2.131923    -0.436699     0.752529
   13      H      -0.664012    -1.014308    -1.432860
   14      H      -0.122588     0.698034    -1.750869
   15      H      -2.547308     0.807766    -0.849107
   16      H      -1.398086     1.388333     0.344223
   17      H      -2.378694    -1.249907     0.306782
 ----------------------------------------------------

 Frequency:      -610.17                  24.46                  85.87
 Force Cnst:      1.8978                 0.0005                 0.0081
 Red. Mass:       8.6517                 1.4026                 1.8739
 IR Intens:        0.000                  0.000                  0.000
 Frequency:       132.05                 172.78                 239.03
 Force Cnst:      0.0338                 0.0420                 0.0573
 Red. Mass:       3.2889                 2.3851                 1.7029
 IR Intens:        0.000                  0.000                  0.000
 Frequency:       269.05                 305.14                 417.35
 Force Cnst:      0.0679                 0.0925                 0.2061
 Red. Mass:       1.5914                 1.6863                 2.0079
 IR Intens:        0.000                  0.000                  0.000
 Frequency:       454.29                 539.96                 584.87
 Force Cnst:      0.2592                 0.1847                 0.2526
 Red. Mass:       2.1318                 1.0752                 1.2532
 IR Intens:        0.000                  0.000                  0.000
 Frequency:       785.74                 840.52                 886.25
 Force Cnst:      0.3997                 0.5636                 0.7585
 Red. Mass:       1.0988                 1.3541                 1.6391
 IR Intens:        0.000                  0.000                  0.000
 Frequency:       909.25                 934.66                 981.50
 Force Cnst:      1.1448                 0.6047                 0.9356
 Red. Mass:       2.3502                 1.1748                 1.6483
 IR Intens:        0.000                  0.000                  0.000
 Frequency:      1038.02                1068.19                1082.85
 Force Cnst:      0.8060                 0.8992                 0.9782
 Red. Mass:       1.2697                 1.3375                 1.4159
 IR Intens:        0.000                  0.000                  0.000
 Frequency:      1135.37                1181.19                1237.77
 Force Cnst:      2.8472                 1.4940                 1.1065
 Red. Mass:       3.7488                 1.8175                 1.2258
 IR Intens:        0.000                  0.000                  0.000
 Frequency:      1310.91                1359.14                1394.23
 Force Cnst:      1.4219                 1.3774                 1.3911
 Red. Mass:       1.4043                 1.2655                 1.2147
 IR Intens:        0.000                  0.000                  0.000
 Frequency:      1411.64                1445.16                1472.29
 Force Cnst:      1.4824                 1.5634                 1.5055
 Red. Mass:       1.2626                 1.2705                 1.1788
 IR Intens:        0.000                  0.000                  0.000
 Frequency:      1482.52                1493.63                1507.16
 Force Cnst:      1.3614                 1.3954                 1.4453
 Red. Mass:       1.0513                 1.0616                 1.0799
 IR Intens:        0.000                  0.000                  0.000
 Frequency:      1589.70                2932.20                3016.33
 Force Cnst:      3.6948                 5.4248                 5.8374
 Red. Mass:       2.4815                 1.0709                 1.0890
 IR Intens:        0.000                  0.000                  0.000
 Frequency:      3032.41                3093.97                3107.80
 Force Cnst:      5.6250                 6.1867                 6.2165
 Red. Mass:       1.0382                 1.0969                 1.0924
 IR Intens:        0.000                  0.000                  0.000
 Frequency:      3111.14                3122.09                3154.79
 Force Cnst:      6.0176                 6.3105                 6.1918
 Red. Mass:       1.0552                 1.0988                 1.0559
 IR Intens:        0.000                  0.000                  0.000
 Frequency:      3208.13                3245.59                3929.01
 Force Cnst:      6.7557                 6.9273                 9.6990
 Red. Mass:       1.1141                 1.1162                 1.0664
 IR Intens:        0.000                  0.000                  0.000

 STANDARD THERMODYNAMIC QUANTITIES AT   298.15 K  AND     1.00 ATM

   This Molecule has  1 Imaginary Frequencies
   Zero point vibrational energy:       92.530 kcal/mol

   Atom    1 Element C  Has Mass   12.00000
   Atom    2 Element C  Has Mass   12.00000
   Atom    3 Element C  Has Mass   12.00000
   Atom    4 Element H  Has Mass    1.00783
   Atom    5 Element H  Has Mass    1.00783
   Atom    6 Element H  Has Mass    1.00783
   Atom    7 Element H  Has Mass    1.00783
   Atom    8 Element H  Has Mass    1.00783
   Atom    9 Element H  Has Mass    1.00783
   Atom   10 Element C  Has Mass   12.00000
   Atom   11 Element C  Has Mass   12.00000
   Atom   12 Element O  Has Mass   15.99491
   Atom   13 Element H  Has Mass    1.00783
   Atom   14 Element H  Has Mass    1.00783
   Atom   15 Element H  Has Mass    1.00783
   Atom   16 Element H  Has Mass    1.00783
   Atom   17 Element H  Has Mass    1.00783
   Molecular Mass:    87.081040 amu
   Principal axes and moments of inertia in atomic units:
                             1           2           3
    Eigenvalues --      350.99365   971.29725  1068.72371
          X               0.99993     0.00453     0.01124
          Y              -0.00493     0.99932     0.03651
          Z              -0.01106    -0.03656     0.99927
   Rotational Symmetry Number is   1
   The Molecule is an Asymmetric Top
   Translational Enthalpy:        0.889 kcal/mol
   Rotational Enthalpy:           0.889 kcal/mol
   Vibrational Enthalpy:         96.155 kcal/mol
   gas constant (RT):             0.592 kcal/mol
   Translational Entropy:        39.306  cal/mol.K
   Rotational Entropy:           27.390  cal/mol.K
   Vibrational Entropy:          24.242  cal/mol.K

   Total Enthalpy:               98.525 kcal/mol
   Total Entropy:                90.938  cal/mol.K

 Total job time:  18598.67s(wall), 17711.55s(cpu)
        *  Thank you very much for using Q-Chem.  Have a nice day.  *
