User input:
--------------------------------------------------------------
$rem
XC_GRID 000075000434
JOBTYPE ts
EXCHANGE M08SO
BASIS gen
GUI=2
UNRESTRICTED TRUE
CORRELATION NONE
$end

$comment
c5h11o-2
$end

$molecule
0 2
C
H  1 1.092229
C  1 1.527315 2 107.958069
H  3 1.090227 1 110.770920 2 56.093689 0
H  3 1.090898 1 111.325723 2 -64.189303 0
H  3 1.091250 1 110.953165 2 175.673951 0
C  1 1.527818 2 107.794800 3 119.725993 0
H  7 1.089943 1 110.526929 2 -57.026650 0
H  7 1.090254 1 111.450658 2 63.156526 0
H  7 1.090598 1 111.106449 2 -176.077429 0
C  1 1.534726 2 106.253880 3 -119.709918 0
H  11 1.091328 1 110.072608 2 57.956706 0
H  11 1.096882 1 109.373472 2 -58.844461 0
C  11 1.497352 1 114.791607 2 -179.891497 0
H  14 1.090172 11 119.031123 1 53.350086 0
H  14 1.262248 11 120.842759 1 -92.725338 0
O  16 1.215158 14 67.420484 11 -105.314172 0
$end

$basis
H  0
S  3 1.00
3.386500000000E+01 2.549380000000E-02
5.094790000000E+00 1.903730000000E-01
1.158790000000E+00 8.521610000000E-01
S  1 1.00
3.258400000000E-01 1.000000000000E+00
S  1 1.00
1.027410000000E-01 1.000000000000E+00
S  1 1.00
3.600000000000E-02 1.000000000000E+00
P  1 1.00
1.500000000000E+00 1.000000000000E+00
P  1 1.00
3.750000000000E-01 1.000000000000E+00
****
C 0
S  6 1.00
4.563240000000E+03 1.966650000000E-03
6.820240000000E+02 1.523060000000E-02
1.549730000000E+02 7.612690000000E-02
4.445530000000E+01 2.608010000000E-01
1.302900000000E+01 6.164620000000E-01
1.827730000000E+00 2.210060000000E-01
S  3 1.00
2.096420000000E+01 1.146600000000E-01
4.803310000000E+00 9.199990000000E-01
1.459330000000E+00 -3.030680000000E-03
S  1 1.00
4.834560000000E-01 1.000000000000E+00
S  1 1.00
1.455850000000E-01 1.000000000000E+00
S  1 1.00
4.380000000000E-02 1.000000000000E+00
P  3 1.00
2.096420000000E+01 4.024870000000E-02
4.803310000000E+00 2.375940000000E-01
1.459330000000E+00 8.158540000000E-01
P  1 1.00
4.834560000000E-01 1.000000000000E+00
P  1 1.00
1.455850000000E-01 1.000000000000E+00
P  1 1.00
4.380000000000E-02 1.000000000000E+00
D  1 1.00
1.252000000000E+00 1.000000000000E+00
D  1 1.00
3.130000000000E-01 1.000000000000E+00
F  1 1.00
8.000000000000E-01 1.000000000000E+00
****
O  0
S  6 1.00
8.588500000000E+03 1.895150000000E-03
1.297230000000E+03 1.438590000000E-02
2.992960000000E+02 7.073200000000E-02
8.737710000000E+01 2.400010000000E-01
2.567890000000E+01 5.947970000000E-01
3.740040000000E+00 2.808020000000E-01
S  3 1.00
4.211750000000E+01 1.138890000000E-01
9.628370000000E+00 9.208110000000E-01
2.853320000000E+00 -3.274470000000E-03
S  1 1.00
9.056610000000E-01 1.000000000000E+00
S  1 1.00
2.556110000000E-01 1.000000000000E+00
S  1 1.00
8.450000000000E-02 1.000000000000E+00
P  3 1.00
4.211750000000E+01 3.651140000000E-02
9.628370000000E+00 2.371530000000E-01
2.853320000000E+00 8.197020000000E-01
P  1 1.00
9.056610000000E-01 1.000000000000E+00
P  1 1.00
2.556110000000E-01 1.000000000000E+00
P  1 1.00
8.450000000000E-02 1.000000000000E+00
D  1 1.00
2.584000000000E+00 1.000000000000E+00
D  1 1.00
6.460000000000E-01 1.000000000000E+00
F  1 1.00
1.400000000000E+00 1.000000000000E+00
****
$end

--------------------------------------------------------------

   22    -272.1491200969      3.22E-09 Convergence criterion met
 Total energy in the final basis set = -272.1491200969
   13    -272.1489864499      7.30E-09 Convergence criterion met
 Total energy in the final basis set = -272.1489864499
   13    -272.1487769681      8.60E-09 Convergence criterion met
 Total energy in the final basis set = -272.1487769681
   13    -272.1485357526      8.82E-09 Convergence criterion met
 Total energy in the final basis set = -272.1485357526
   13    -272.1482004553      8.23E-09 Convergence criterion met
 Total energy in the final basis set = -272.1482004553
   13    -272.1477414490      8.78E-09 Convergence criterion met
 Total energy in the final basis set = -272.1477414490
   14    -272.1471803799      4.80E-09 Convergence criterion met
 Total energy in the final basis set = -272.1471803799
   14    -272.1465289331      4.75E-09 Convergence criterion met
 **  OPTIMIZATION CONVERGED  **
 Total job time:  48940.78s(wall), 48650.69s(cpu)
        *  Thank you very much for using Q-Chem.  Have a nice day.  *

User input:
--------------------------------------------------------------

$molecule
READ
$end

$rem
JOBTYPE Freq
XC_GRID 000075000434
EXCHANGE M08SO
BASIS gen
GUI=2
SCF_GUESS READ
$end

$basis
H  0
S  3 1.00
3.386500000000E+01 2.549380000000E-02
5.094790000000E+00 1.903730000000E-01
1.158790000000E+00 8.521610000000E-01
S  1 1.00
3.258400000000E-01 1.000000000000E+00
S  1 1.00
1.027410000000E-01 1.000000000000E+00
S  1 1.00
3.600000000000E-02 1.000000000000E+00
P  1 1.00
1.500000000000E+00 1.000000000000E+00
P  1 1.00
3.750000000000E-01 1.000000000000E+00
****
C 0
S  6 1.00
4.563240000000E+03 1.966650000000E-03
6.820240000000E+02 1.523060000000E-02
1.549730000000E+02 7.612690000000E-02
4.445530000000E+01 2.608010000000E-01
1.302900000000E+01 6.164620000000E-01
1.827730000000E+00 2.210060000000E-01
S  3 1.00
2.096420000000E+01 1.146600000000E-01
4.803310000000E+00 9.199990000000E-01
1.459330000000E+00 -3.030680000000E-03
S  1 1.00
4.834560000000E-01 1.000000000000E+00
S  1 1.00
1.455850000000E-01 1.000000000000E+00
S  1 1.00
4.380000000000E-02 1.000000000000E+00
P  3 1.00
2.096420000000E+01 4.024870000000E-02
4.803310000000E+00 2.375940000000E-01
1.459330000000E+00 8.158540000000E-01
P  1 1.00
4.834560000000E-01 1.000000000000E+00
P  1 1.00
1.455850000000E-01 1.000000000000E+00
P  1 1.00
4.380000000000E-02 1.000000000000E+00
D  1 1.00
1.252000000000E+00 1.000000000000E+00
D  1 1.00
3.130000000000E-01 1.000000000000E+00
F  1 1.00
8.000000000000E-01 1.000000000000E+00
****
O  0
S  6 1.00
8.588500000000E+03 1.895150000000E-03
1.297230000000E+03 1.438590000000E-02
2.992960000000E+02 7.073200000000E-02
8.737710000000E+01 2.400010000000E-01
2.567890000000E+01 5.947970000000E-01
3.740040000000E+00 2.808020000000E-01
S  3 1.00
4.211750000000E+01 1.138890000000E-01
9.628370000000E+00 9.208110000000E-01
2.853320000000E+00 -3.274470000000E-03
S  1 1.00
9.056610000000E-01 1.000000000000E+00
S  1 1.00
2.556110000000E-01 1.000000000000E+00
S  1 1.00
8.450000000000E-02 1.000000000000E+00
P  3 1.00
4.211750000000E+01 3.651140000000E-02
9.628370000000E+00 2.371530000000E-01
2.853320000000E+00 8.197020000000E-01
P  1 1.00
9.056610000000E-01 1.000000000000E+00
P  1 1.00
2.556110000000E-01 1.000000000000E+00
P  1 1.00
8.450000000000E-02 1.000000000000E+00
D  1 1.00
2.584000000000E+00 1.000000000000E+00
D  1 1.00
6.460000000000E-01 1.000000000000E+00
F  1 1.00
1.400000000000E+00 1.000000000000E+00
****
--------------------------------------------------------------

 Total energy in the final basis set = -272.1496839540
    9    -272.1496842236      4.80E-09 Convergence criterion met
 Total energy in the final basis set = -272.1496842236
    9    -272.1496833865      5.68E-09 Convergence criterion met
 Total energy in the final basis set = -272.1496833865
    9    -272.1496836482      8.95E-09 Convergence criterion met
 Total energy in the final basis set = -272.1496836482
    9    -272.1496845069      5.67E-09 Convergence criterion met
 Total energy in the final basis set = -272.1496845069
    9    -272.1496838984      6.75E-09 Convergence criterion met
 Total energy in the final basis set = -272.1496838984
    9    -272.1496843240      3.91E-09 Convergence criterion met
 Total energy in the final basis set = -272.1496843240
    9    -272.1496839085      7.20E-09 Convergence criterion met
 Total energy in the final basis set = -272.1496839085

                    Orbital Energies (a.u.)
 --------------------------------------------------------------

 Alpha MOs
 -- Occupied --
-19.587 -10.572 -10.512 -10.505 -10.492 -10.491  -1.163  -0.924
 -0.819  -0.784  -0.710  -0.647  -0.604  -0.559  -0.543  -0.515
 -0.498  -0.490  -0.463  -0.445  -0.416  -0.406  -0.403  -0.361
 -0.272

 Beta MOs
 -- Occupied --
-19.573 -10.562 -10.512 -10.506 -10.492 -10.491  -1.132  -0.922
 -0.814  -0.784  -0.697  -0.638  -0.560  -0.552  -0.534  -0.504
 -0.495  -0.476  -0.461  -0.440  -0.413  -0.403  -0.402  -0.353

          Ground-State Mulliken Net Atomic Charges

     Atom                 Charge (a.u.)    Spin (a.u.)
  --------------------------------------------------------
      1 C                    -0.165369       0.017139
      2 H                     0.270532      -0.000720
      3 C                    -0.655468      -0.011898
      4 H                     0.204165       0.002417
      5 H                     0.197769       0.003298
      6 H                     0.225499       0.002517
      7 C                    -0.659246      -0.004256
      8 H                     0.204540      -0.000384
      9 H                     0.202817       0.002648
     10 H                     0.199173       0.002727
     11 C                    -0.395182      -0.082229
     12 H                     0.292416       0.006808
     13 H                     0.229780       0.041395
     14 C                    -0.410423       0.640894
     15 H                     0.236256      -0.017637
     16 H                     0.327765      -0.016878
     17 O                    -0.305026       0.414160
  --------------------------------------------------------
  Sum of atomic charges =     0.000000

                    Cartesian Multipole Moments
 -----------------------------------------------------------------
    Charge (ESU x 10^10)
                 0.0000
    Dipole Moment (Debye)
         X      -2.4679      Y       0.0568      Z       0.1686
       Tot       2.4743
    Quadrupole Moments (Debye-Ang)
        XX     -49.1621     XY       0.5066     YY     -39.1190
        XZ       1.0677     YZ       0.3256     ZZ     -39.3111
    Octapole Moments (Debye-Ang^2)
       XXX     -25.9067    XXY       1.7222    XYY       6.0249
       YYY      -0.1755    XXZ       0.6277    XYZ       1.2822
       YYZ      -0.8498    XZZ       4.2883    YZZ      -0.1797
       ZZZ      -0.1239
    Hexadecapole Moments (Debye-Ang^3)
      XXXX    -727.8740   XXXY       0.6133   XXYY    -144.8665
      XYYY       2.0260   YYYY    -237.0960   XXXZ      -0.6451
      XXYZ       4.4886   XYYZ       3.3109   YYYZ       0.4203
      XXZZ    -132.0068   XYZZ       0.7693   YYZZ     -61.4031

       Standard Nuclear Orientation (Angstroms)
    I     Atom         X            Y            Z
 ----------------------------------------------------
    1      C      -1.101701     0.038200    -0.464908
    2      H      -1.665463     0.078200    -1.409181
    3      C      -1.314266     1.360455     0.279813
    4      H      -2.378667     1.529627     0.487194
    5      H      -0.938853     2.212489    -0.302606
    6      H      -0.783189     1.349556     1.243079
    7      C      -1.639036    -1.139557     0.357735
    8      H      -2.721666    -1.044530     0.509972
    9      H      -1.447472    -2.098948    -0.141231
   10      H      -1.172423    -1.173409     1.352287
   11      C       0.379492    -0.151146    -0.841349
   12      H       0.718048     0.670742    -1.488197
   13      H       0.494638    -1.082032    -1.425753
   14      C       1.305667    -0.229020     0.339646
   15      H       1.075929    -0.928904     1.152797
   16      H       1.904466     0.806726     0.763248
   17      O       2.641714     0.050862     0.154097
 ----------------------------------------------------

 Frequency:     -1994.24                  52.00                  88.02
 Force Cnst:      2.6119                 0.0039                 0.0105
 Red. Mass:       1.1147                 2.4685                 2.3015
 IR Intens:        0.000                  0.000                  0.000
 Frequency:       203.78                 232.72                 247.61
 Force Cnst:      0.0682                 0.0368                 0.0374
 Red. Mass:       2.7857                 1.1531                 1.0339
 IR Intens:        0.000                  0.000                  0.000
 Frequency:       329.20                 345.46                 402.02
 Force Cnst:      0.1728                 0.1400                 0.2773
 Red. Mass:       2.7062                 1.9916                 2.9117
 IR Intens:        0.000                  0.000                  0.000
 Frequency:       538.32                 619.35                 810.79
 Force Cnst:      0.3868                 0.2826                 1.0692
 Red. Mass:       2.2655                 1.2503                 2.7606
 IR Intens:        0.000                  0.000                  0.000
 Frequency:       853.99                 911.85                 942.53
 Force Cnst:      0.5447                 0.5639                 0.6560
 Red. Mass:       1.2678                 1.1511                 1.2533
 IR Intens:        0.000                  0.000                  0.000
 Frequency:       967.10                 974.22                 997.54
 Force Cnst:      0.9649                 1.0152                 1.1324
 Red. Mass:       1.7511                 1.8155                 1.9315
 IR Intens:        0.000                  0.000                  0.000
 Frequency:      1110.21                1141.33                1191.74
 Force Cnst:      1.1815                 1.4957                 1.6685
 Red. Mass:       1.6269                 1.9488                 1.9939
 IR Intens:        0.000                  0.000                  0.000
 Frequency:      1204.50                1225.80                1290.48
 Force Cnst:      2.4301                 1.0570                 1.5044
 Red. Mass:       2.8429                 1.1939                 1.5332
 IR Intens:        0.000                  0.000                  0.000
 Frequency:      1344.68                1348.50                1387.62
 Force Cnst:      1.5713                 1.5071                 1.5531
 Red. Mass:       1.4749                 1.4066                 1.3690
 IR Intens:        0.000                  0.000                  0.000
 Frequency:      1395.20                1407.58                1451.80
 Force Cnst:      1.6067                 1.6663                 1.3904
 Red. Mass:       1.4009                 1.4275                 1.1196
 IR Intens:        0.000                  0.000                  0.000
 Frequency:      1463.83                1473.11                1484.53
 Force Cnst:      1.3152                 1.3515                 1.3630
 Red. Mass:       1.0418                 1.0570                 1.0497
 IR Intens:        0.000                  0.000                  0.000
 Frequency:      1487.91                2438.91                2943.78
 Force Cnst:      1.3813                 3.7532                 5.4503
 Red. Mass:       1.0590                 1.0709                 1.0675
 IR Intens:        0.000                  0.000                  0.000
 Frequency:      2968.19                2974.98                2980.73
 Force Cnst:      5.3803                 5.4219                 5.6558
 Red. Mass:       1.0365                 1.0398                 1.0804
 IR Intens:        0.000                  0.000                  0.000
 Frequency:      3016.32                3035.72                3038.91
 Force Cnst:      5.8545                 5.9752                 5.9502
 Red. Mass:       1.0922                 1.1005                 1.0936
 IR Intens:        0.000                  0.000                  0.000
 Frequency:      3046.26                3047.30                3051.16
 Force Cnst:      6.0194                 5.9980                 6.0341
 Red. Mass:       1.1009                 1.0963                 1.1001
 IR Intens:        0.000                  0.000                  0.000

 STANDARD THERMODYNAMIC QUANTITIES AT   298.15 K  AND     1.00 ATM

   This Molecule has  1 Imaginary Frequencies
   Zero point vibrational energy:       90.731 kcal/mol

   Atom    1 Element C  Has Mass   12.00000
   Atom    2 Element H  Has Mass    1.00783
   Atom    3 Element C  Has Mass   12.00000
   Atom    4 Element H  Has Mass    1.00783
   Atom    5 Element H  Has Mass    1.00783
   Atom    6 Element H  Has Mass    1.00783
   Atom    7 Element C  Has Mass   12.00000
   Atom    8 Element H  Has Mass    1.00783
   Atom    9 Element H  Has Mass    1.00783
   Atom   10 Element H  Has Mass    1.00783
   Atom   11 Element C  Has Mass   12.00000
   Atom   12 Element H  Has Mass    1.00783
   Atom   13 Element H  Has Mass    1.00783
   Atom   14 Element C  Has Mass   12.00000
   Atom   15 Element H  Has Mass    1.00783
   Atom   16 Element H  Has Mass    1.00783
   Atom   17 Element O  Has Mass   15.99491
   Molecular Mass:    87.081040 amu
   Principal axes and moments of inertia in atomic units:
                             1           2           3
    Eigenvalues --      305.34084   910.27210  1018.96297
          X               0.99996     0.00474    -0.00700
          Y              -0.00476     0.99998    -0.00305
          Z               0.00698     0.00308     0.99997
   Rotational Symmetry Number is   1
   The Molecule is an Asymmetric Top
   Translational Enthalpy:        0.889 kcal/mol
   Rotational Enthalpy:           0.889 kcal/mol
   Vibrational Enthalpy:         93.920 kcal/mol
   gas constant (RT):             0.592 kcal/mol
   Translational Entropy:        39.306  cal/mol.K
   Rotational Entropy:           27.140  cal/mol.K
   Vibrational Entropy:          19.890  cal/mol.K

   Total Enthalpy:               96.290 kcal/mol
   Total Entropy:                86.335  cal/mol.K

 Total job time:  79630.04s(wall), 78918.22s(cpu)
        *  Thank you very much for using Q-Chem.  Have a nice day.  *
