User input:
--------------------------------------------------------------
$rem
XC_GRID 000075000434
JOBTYPE ts
EXCHANGE M08SO
BASIS gen
GUI=2
UNRESTRICTED TRUE
CORRELATION NONE
$end

$comment
c5h11o-2
$end

$molecule
0 2
C
H  1 1.098102
C  1 1.510970 2 106.845924
H  3 1.086701 1 117.535298 2 83.153054 0
H  3 1.335772 1 109.988385 2 -156.716724 0
O  5 1.273571 3 105.016006 1 116.686948 0
C  6 1.429344 5 84.956444 3 2.070426 0
H  7 1.089566 6 112.040799 5 116.022828 0
H  7 1.090895 6 112.236763 5 -118.747872 0
C  1 1.525427 2 108.534203 3 119.407731 0
H  10 1.089315 1 110.905327 2 60.765459 0
H  10 1.090006 1 111.430236 2 -59.772072 0
H  10 1.091697 1 110.245619 2 -179.638751 0
C  1 1.528976 2 108.012541 3 -120.506847 0
H  14 1.089089 1 110.469554 2 -56.640299 0
H  14 1.089149 1 112.147775 2 64.412568 0
H  14 1.091142 1 109.918251 2 -176.044967 0
$end

$basis
H  0
S  3 1.00
3.386500000000E+01 2.549380000000E-02
5.094790000000E+00 1.903730000000E-01
1.158790000000E+00 8.521610000000E-01
S  1 1.00
3.258400000000E-01 1.000000000000E+00
S  1 1.00
1.027410000000E-01 1.000000000000E+00
S  1 1.00
3.600000000000E-02 1.000000000000E+00
P  1 1.00
1.500000000000E+00 1.000000000000E+00
P  1 1.00
3.750000000000E-01 1.000000000000E+00
****
C 0
S  6 1.00
4.563240000000E+03 1.966650000000E-03
6.820240000000E+02 1.523060000000E-02
1.549730000000E+02 7.612690000000E-02
4.445530000000E+01 2.608010000000E-01
1.302900000000E+01 6.164620000000E-01
1.827730000000E+00 2.210060000000E-01
S  3 1.00
2.096420000000E+01 1.146600000000E-01
4.803310000000E+00 9.199990000000E-01
1.459330000000E+00 -3.030680000000E-03
S  1 1.00
4.834560000000E-01 1.000000000000E+00
S  1 1.00
1.455850000000E-01 1.000000000000E+00
S  1 1.00
4.380000000000E-02 1.000000000000E+00
P  3 1.00
2.096420000000E+01 4.024870000000E-02
4.803310000000E+00 2.375940000000E-01
1.459330000000E+00 8.158540000000E-01
P  1 1.00
4.834560000000E-01 1.000000000000E+00
P  1 1.00
1.455850000000E-01 1.000000000000E+00
P  1 1.00
4.380000000000E-02 1.000000000000E+00
D  1 1.00
1.252000000000E+00 1.000000000000E+00
D  1 1.00
3.130000000000E-01 1.000000000000E+00
F  1 1.00
8.000000000000E-01 1.000000000000E+00
****
O  0
S  6 1.00
8.588500000000E+03 1.895150000000E-03
1.297230000000E+03 1.438590000000E-02
2.992960000000E+02 7.073200000000E-02
8.737710000000E+01 2.400010000000E-01
2.567890000000E+01 5.947970000000E-01
3.740040000000E+00 2.808020000000E-01
S  3 1.00
4.211750000000E+01 1.138890000000E-01
9.628370000000E+00 9.208110000000E-01
2.853320000000E+00 -3.274470000000E-03
S  1 1.00
9.056610000000E-01 1.000000000000E+00
S  1 1.00
2.556110000000E-01 1.000000000000E+00
S  1 1.00
8.450000000000E-02 1.000000000000E+00
P  3 1.00
4.211750000000E+01 3.651140000000E-02
9.628370000000E+00 2.371530000000E-01
2.853320000000E+00 8.197020000000E-01
P  1 1.00
9.056610000000E-01 1.000000000000E+00
P  1 1.00
2.556110000000E-01 1.000000000000E+00
P  1 1.00
8.450000000000E-02 1.000000000000E+00
D  1 1.00
2.584000000000E+00 1.000000000000E+00
D  1 1.00
6.460000000000E-01 1.000000000000E+00
F  1 1.00
1.400000000000E+00 1.000000000000E+00
****
$end

--------------------------------------------------------------

   23    -272.1494331305      8.53E-09 Convergence criterion met
 Total energy in the final basis set = -272.1494331305
   13    -272.1493096570      3.96E-09 Convergence criterion met
 Total energy in the final basis set = -272.1493096570
   11    -272.1490673221      8.39E-09 Convergence criterion met
 Total energy in the final basis set = -272.1490673221
   12    -272.1487164575      9.70E-09 Convergence criterion met
 Total energy in the final basis set = -272.1487164575
   13    -272.1482788656      6.39E-09 Convergence criterion met
 Total energy in the final basis set = -272.1482788656
   13    -272.1478464287      7.81E-09 Convergence criterion met
 Total energy in the final basis set = -272.1478464287
   13    -272.1477458765      4.76E-09 Convergence criterion met
 Total energy in the final basis set = -272.1477458765
   13    -272.1484315921      7.93E-09 Convergence criterion met
 **  OPTIMIZATION CONVERGED  **
 Total job time:  40583.37s(wall), 32665.81s(cpu)
        *  Thank you very much for using Q-Chem.  Have a nice day.  *

User input:
--------------------------------------------------------------

$molecule
READ
$end

$rem
JOBTYPE Freq
XC_GRID 000075000434
EXCHANGE M08SO
BASIS gen
GUI=2
SCF_GUESS READ
$end

$basis
H  0
S  3 1.00
3.386500000000E+01 2.549380000000E-02
5.094790000000E+00 1.903730000000E-01
1.158790000000E+00 8.521610000000E-01
S  1 1.00
3.258400000000E-01 1.000000000000E+00
S  1 1.00
1.027410000000E-01 1.000000000000E+00
S  1 1.00
3.600000000000E-02 1.000000000000E+00
P  1 1.00
1.500000000000E+00 1.000000000000E+00
P  1 1.00
3.750000000000E-01 1.000000000000E+00
****
C 0
S  6 1.00
4.563240000000E+03 1.966650000000E-03
6.820240000000E+02 1.523060000000E-02
1.549730000000E+02 7.612690000000E-02
4.445530000000E+01 2.608010000000E-01
1.302900000000E+01 6.164620000000E-01
1.827730000000E+00 2.210060000000E-01
S  3 1.00
2.096420000000E+01 1.146600000000E-01
4.803310000000E+00 9.199990000000E-01
1.459330000000E+00 -3.030680000000E-03
S  1 1.00
4.834560000000E-01 1.000000000000E+00
S  1 1.00
1.455850000000E-01 1.000000000000E+00
S  1 1.00
4.380000000000E-02 1.000000000000E+00
P  3 1.00
2.096420000000E+01 4.024870000000E-02
4.803310000000E+00 2.375940000000E-01
1.459330000000E+00 8.158540000000E-01
P  1 1.00
4.834560000000E-01 1.000000000000E+00
P  1 1.00
1.455850000000E-01 1.000000000000E+00
P  1 1.00
4.380000000000E-02 1.000000000000E+00
D  1 1.00
1.252000000000E+00 1.000000000000E+00
D  1 1.00
3.130000000000E-01 1.000000000000E+00
F  1 1.00
8.000000000000E-01 1.000000000000E+00
****
O  0
S  6 1.00
8.588500000000E+03 1.895150000000E-03
1.297230000000E+03 1.438590000000E-02
2.992960000000E+02 7.073200000000E-02
8.737710000000E+01 2.400010000000E-01
2.567890000000E+01 5.947970000000E-01
3.740040000000E+00 2.808020000000E-01
S  3 1.00
4.211750000000E+01 1.138890000000E-01
9.628370000000E+00 9.208110000000E-01
2.853320000000E+00 -3.274470000000E-03
S  1 1.00
9.056610000000E-01 1.000000000000E+00
S  1 1.00
2.556110000000E-01 1.000000000000E+00
S  1 1.00
8.450000000000E-02 1.000000000000E+00
P  3 1.00
4.211750000000E+01 3.651140000000E-02
9.628370000000E+00 2.371530000000E-01
2.853320000000E+00 8.197020000000E-01
P  1 1.00
9.056610000000E-01 1.000000000000E+00
P  1 1.00
2.556110000000E-01 1.000000000000E+00
P  1 1.00
8.450000000000E-02 1.000000000000E+00
D  1 1.00
2.584000000000E+00 1.000000000000E+00
D  1 1.00
6.460000000000E-01 1.000000000000E+00
F  1 1.00
1.400000000000E+00 1.000000000000E+00
****
--------------------------------------------------------------

 Total energy in the final basis set = -272.1499382643
    7    -272.1499382836      6.99E-09 Convergence criterion met
 Total energy in the final basis set = -272.1499382836
    7    -272.1499383692      3.38E-09 Convergence criterion met
 Total energy in the final basis set = -272.1499383692
    7    -272.1499383532      5.14E-09 Convergence criterion met
 Total energy in the final basis set = -272.1499383532
    7    -272.1499383490      3.04E-09 Convergence criterion met
 Total energy in the final basis set = -272.1499383490
    7    -272.1499383484      4.94E-09 Convergence criterion met
 Total energy in the final basis set = -272.1499383484
    8    -272.1499378778      1.66E-09 Convergence criterion met
 Total energy in the final basis set = -272.1499378778
    8    -272.1499378731      4.79E-09 Convergence criterion met
 Total energy in the final basis set = -272.1499378731

                    Orbital Energies (a.u.)
 --------------------------------------------------------------

 Alpha MOs
 -- Occupied --
-19.587 -10.546 -10.529 -10.517 -10.492 -10.490  -1.138  -0.921
 -0.815  -0.784  -0.721  -0.666  -0.582  -0.564  -0.541  -0.498
 -0.490  -0.478  -0.460  -0.443  -0.420  -0.411  -0.396  -0.368
 -0.301

 Beta MOs
 -- Occupied --
-19.569 -10.546 -10.519 -10.517 -10.492 -10.489  -1.102  -0.917
 -0.803  -0.783  -0.715  -0.653  -0.568  -0.540  -0.536  -0.486
 -0.485  -0.466  -0.454  -0.433  -0.413  -0.408  -0.380  -0.354

          Ground-State Mulliken Net Atomic Charges

     Atom                 Charge (a.u.)    Spin (a.u.)
  --------------------------------------------------------
      1 C                    -0.093186      -0.033676
      2 H                     0.239947       0.034693
      3 C                    -0.117178       0.559788
      4 H                     0.285599      -0.009319
      5 H                     0.230867      -0.039617
      6 O                    -0.215702       0.506967
      7 C                    -0.556454      -0.009391
      8 H                     0.207128       0.002458
      9 H                     0.203841       0.001760
     10 C                    -0.625558      -0.009408
     11 H                     0.193913      -0.000844
     12 H                     0.184802       0.000723
     13 H                     0.213258       0.003136
     14 C                    -0.824082      -0.007079
     15 H                     0.218072      -0.003669
     16 H                     0.219910      -0.002035
     17 H                     0.234823       0.005513
  --------------------------------------------------------
  Sum of atomic charges =     0.000000

                    Cartesian Multipole Moments
 -----------------------------------------------------------------
    Charge (ESU x 10^10)
                 0.0000
    Dipole Moment (Debye)
         X      -1.7059      Y       0.8398      Z      -1.5858
       Tot       2.4759
    Quadrupole Moments (Debye-Ang)
        XX     -43.5830     XY       1.5446     YY     -39.4230
        XZ      -3.6040     YZ       0.5477     ZZ     -40.7068
    Octapole Moments (Debye-Ang^2)
       XXX      -2.2192    XXY       1.3657    XYY       2.7176
       YYY       2.6583    XXZ      -9.5483    XYZ       0.6902
       YYZ      -0.7572    XZZ       0.3901    YZZ      -0.7220
       ZZZ       1.8591
    Hexadecapole Moments (Debye-Ang^3)
      XXXX    -622.5174   XXXY       9.7207   XXYY    -138.5241
      XYYY      -0.5244   YYYY    -231.1199   XXXZ     -12.3221
      XXYZ       0.5595   XYYZ       0.5462   YYYZ      -0.0092
      XXZZ    -129.0192   XYZZ      -0.1577   YYZZ     -62.0233

       Standard Nuclear Orientation (Angstroms)
    I     Atom         X            Y            Z
 ----------------------------------------------------
    1      C      -0.911940     0.036564    -0.417347
    2      H      -1.072045     0.106499    -1.509091
    3      C       0.369852     0.782203    -0.106630
    4      H       0.311177     1.868524     0.003540
    5      H       0.875683     0.335380     1.069415
    6      O       1.993528    -0.197614     0.760260
    7      C       1.692656     0.237690    -0.573834
    8      H       2.411309     0.982427    -0.935808
    9      H       1.627955    -0.603720    -1.277544
   10      C      -2.099834     0.690671     0.294715
   11      H      -3.036879     0.174944     0.049988
   12      H      -2.205586     1.746494     0.013778
   13      H      -1.958944     0.640258     1.383715
   14      C      -0.808538    -1.447372    -0.041661
   15      H      -1.705975    -1.988632    -0.365588
   16      H       0.067084    -1.928506    -0.494235
   17      H      -0.715173    -1.551283     1.048296
 ----------------------------------------------------

 Frequency:     -2107.35                  85.81                 136.04
 Force Cnst:      2.8390                 0.0115                 0.0474
 Red. Mass:       1.0850                 2.6493                 4.3495
 IR Intens:        0.000                  0.000                  0.000
 Frequency:       220.33                 246.42                 271.46
 Force Cnst:      0.0307                 0.0430                 0.0774
 Red. Mass:       1.0737                 1.2021                 1.7818
 IR Intens:        0.000                  0.000                  0.000
 Frequency:       347.18                 418.32                 447.89
 Force Cnst:      0.1582                 0.2558                 0.2513
 Red. Mass:       2.2271                 2.4813                 2.1264
 IR Intens:        0.000                  0.000                  0.000
 Frequency:       672.17                 760.91                 841.81
 Force Cnst:      0.6616                 0.6191                 0.7774
 Red. Mass:       2.4853                 1.8149                 1.8620
 IR Intens:        0.000                  0.000                  0.000
 Frequency:       913.91                 925.11                 960.56
 Force Cnst:      0.5635                 1.0183                 0.7398
 Red. Mass:       1.1450                 2.0194                 1.3609
 IR Intens:        0.000                  0.000                  0.000
 Frequency:      1004.56                1021.75                1093.13
 Force Cnst:      2.8187                 0.9418                 0.7706
 Red. Mass:       4.7408                 1.5311                 1.0946
 IR Intens:        0.000                  0.000                  0.000
 Frequency:      1104.93                1110.44                1147.27
 Force Cnst:      1.2918                 1.3625                 1.1324
 Red. Mass:       1.7959                 1.8755                 1.4603
 IR Intens:        0.000                  0.000                  0.000
 Frequency:      1170.56                1192.93                1284.26
 Force Cnst:      1.1239                 1.3937                 1.2298
 Red. Mass:       1.3922                 1.6622                 1.2655
 IR Intens:        0.000                  0.000                  0.000
 Frequency:      1305.51                1319.32                1367.00
 Force Cnst:      1.4140                 1.6556                 2.1351
 Red. Mass:       1.4081                 1.6144                 1.9392
 IR Intens:        0.000                  0.000                  0.000
 Frequency:      1387.58                1405.36                1461.00
 Force Cnst:      1.5643                 1.4635                 1.3195
 Red. Mass:       1.3790                 1.2576                 1.0492
 IR Intens:        0.000                  0.000                  0.000
 Frequency:      1467.81                1479.31                1484.80
 Force Cnst:      1.3342                 1.3599                 1.3817
 Red. Mass:       1.0511                 1.0547                 1.0637
 IR Intens:        0.000                  0.000                  0.000
 Frequency:      1508.35                1919.21                2932.29
 Force Cnst:      1.4786                 2.2726                 5.4807
 Red. Mass:       1.1031                 1.0472                 1.0819
 IR Intens:        0.000                  0.000                  0.000
 Frequency:      2977.41                2981.23                2989.97
 Force Cnst:      5.4087                 5.4320                 5.5588
 Red. Mass:       1.0355                 1.0373                 1.0554
 IR Intens:        0.000                  0.000                  0.000
 Frequency:      3039.10                3046.83                3051.68
 Force Cnst:      6.0437                 6.0231                 6.0323
 Red. Mass:       1.1106                 1.1012                 1.0994
 IR Intens:        0.000                  0.000                  0.000
 Frequency:      3056.66                3066.48                3083.40
 Force Cnst:      6.0687                 6.1060                 6.0979
 Red. Mass:       1.1024                 1.1021                 1.0886
 IR Intens:        0.000                  0.000                  0.000

 STANDARD THERMODYNAMIC QUANTITIES AT   298.15 K  AND     1.00 ATM

   This Molecule has  1 Imaginary Frequencies
   Zero point vibrational energy:       91.075 kcal/mol

   Atom    1 Element C  Has Mass   12.00000
   Atom    2 Element H  Has Mass    1.00783
   Atom    3 Element C  Has Mass   12.00000
   Atom    4 Element H  Has Mass    1.00783
   Atom    5 Element H  Has Mass    1.00783
   Atom    6 Element O  Has Mass   15.99491
   Atom    7 Element C  Has Mass   12.00000
   Atom    8 Element H  Has Mass    1.00783
   Atom    9 Element H  Has Mass    1.00783
   Atom   10 Element C  Has Mass   12.00000
   Atom   11 Element H  Has Mass    1.00783
   Atom   12 Element H  Has Mass    1.00783
   Atom   13 Element H  Has Mass    1.00783
   Atom   14 Element C  Has Mass   12.00000
   Atom   15 Element H  Has Mass    1.00783
   Atom   16 Element H  Has Mass    1.00783
   Atom   17 Element H  Has Mass    1.00783
   Molecular Mass:    87.081040 amu
   Principal axes and moments of inertia in atomic units:
                             1           2           3
    Eigenvalues --      299.69165   813.91620   929.96034
          X               0.99962     0.00716    -0.02662
          Y              -0.00634     0.99951     0.03075
          Z               0.02683    -0.03057     0.99917
   Rotational Symmetry Number is   1
   The Molecule is an Asymmetric Top
   Translational Enthalpy:        0.889 kcal/mol
   Rotational Enthalpy:           0.889 kcal/mol
   Vibrational Enthalpy:         93.924 kcal/mol
   gas constant (RT):             0.592 kcal/mol
   Translational Entropy:        39.306  cal/mol.K
   Rotational Entropy:           26.919  cal/mol.K
   Vibrational Entropy:          16.624  cal/mol.K

   Total Enthalpy:               96.294 kcal/mol
   Total Entropy:                82.849  cal/mol.K

 Total job time:  85920.02s(wall), 64343.24s(cpu)
        *  Thank you very much for using Q-Chem.  Have a nice day.  *
