User input:
--------------------------------------------------------------
$rem
XC_GRID 000075000434
JOBTYPE ts
EXCHANGE M08SO
BASIS gen
GUI=2
UNRESTRICTED TRUE
CORRELATION NONE
$end

$comment
c5h11o-2
$end

$molecule
read ts14MG3S.out
$end

$basis
H  0
S  3 1.00
3.386500000000E+01 2.549380000000E-02
5.094790000000E+00 1.903730000000E-01
1.158790000000E+00 8.521610000000E-01
S  1 1.00
3.258400000000E-01 1.000000000000E+00
S  1 1.00
1.027410000000E-01 1.000000000000E+00
S  1 1.00
3.600000000000E-02 1.000000000000E+00
P  1 1.00
1.500000000000E+00 1.000000000000E+00
P  1 1.00
3.750000000000E-01 1.000000000000E+00
****
C 0
S  6 1.00
4.563240000000E+03 1.966650000000E-03
6.820240000000E+02 1.523060000000E-02
1.549730000000E+02 7.612690000000E-02
4.445530000000E+01 2.608010000000E-01
1.302900000000E+01 6.164620000000E-01
1.827730000000E+00 2.210060000000E-01
S  3 1.00
2.096420000000E+01 1.146600000000E-01
4.803310000000E+00 9.199990000000E-01
1.459330000000E+00 -3.030680000000E-03
S  1 1.00
4.834560000000E-01 1.000000000000E+00
S  1 1.00
1.455850000000E-01 1.000000000000E+00
S  1 1.00
4.380000000000E-02 1.000000000000E+00
P  3 1.00
2.096420000000E+01 4.024870000000E-02
4.803310000000E+00 2.375940000000E-01
1.459330000000E+00 8.158540000000E-01
P  1 1.00
4.834560000000E-01 1.000000000000E+00
P  1 1.00
1.455850000000E-01 1.000000000000E+00
P  1 1.00
4.380000000000E-02 1.000000000000E+00
D  1 1.00
1.252000000000E+00 1.000000000000E+00
D  1 1.00
3.130000000000E-01 1.000000000000E+00
F  1 1.00
8.000000000000E-01 1.000000000000E+00
****
O  0
S  6 1.00
8.588500000000E+03 1.895150000000E-03
1.297230000000E+03 1.438590000000E-02
2.992960000000E+02 7.073200000000E-02
8.737710000000E+01 2.400010000000E-01
2.567890000000E+01 5.947970000000E-01
3.740040000000E+00 2.808020000000E-01
S  3 1.00
4.211750000000E+01 1.138890000000E-01
9.628370000000E+00 9.208110000000E-01
2.853320000000E+00 -3.274470000000E-03
S  1 1.00
9.056610000000E-01 1.000000000000E+00
S  1 1.00
2.556110000000E-01 1.000000000000E+00
S  1 1.00
8.450000000000E-02 1.000000000000E+00
P  3 1.00
4.211750000000E+01 3.651140000000E-02
9.628370000000E+00 2.371530000000E-01
2.853320000000E+00 8.197020000000E-01
P  1 1.00
9.056610000000E-01 1.000000000000E+00
P  1 1.00
2.556110000000E-01 1.000000000000E+00
P  1 1.00
8.450000000000E-02 1.000000000000E+00
D  1 1.00
2.584000000000E+00 1.000000000000E+00
D  1 1.00
6.460000000000E-01 1.000000000000E+00
F  1 1.00
1.400000000000E+00 1.000000000000E+00
****
$end

--------------------------------------------------------------

   22    -272.1682748196      3.57E-09 Convergence criterion met
 Total energy in the final basis set = -272.1682748196
   15    -272.1680213194      4.46E-09 Convergence criterion met
 Total energy in the final basis set = -272.1680213194
   15    -272.1676657965      4.59E-09 Convergence criterion met
 Total energy in the final basis set = -272.1676657965
   15    -272.1671959078      4.49E-09 Convergence criterion met
 Total energy in the final basis set = -272.1671959078
   15    -272.1666451870      3.93E-09 Convergence criterion met
 Total energy in the final basis set = -272.1666451870
   15    -272.1660698101      2.99E-09 Convergence criterion met
 Total energy in the final basis set = -272.1660698101
   14    -272.1655895133      9.83E-09 Convergence criterion met
 Total energy in the final basis set = -272.1655895133
   15    -272.1652909691      5.32E-09 Convergence criterion met
 **  OPTIMIZATION CONVERGED  **
 Total job time:  46723.09s(wall), 46459.72s(cpu)
        *  Thank you very much for using Q-Chem.  Have a nice day.  *

User input:
--------------------------------------------------------------

$molecule
READ
$end

$rem
JOBTYPE Freq
XC_GRID 000075000434
EXCHANGE M08SO
BASIS gen
GUI=2
SCF_GUESS READ
$end

$basis
H  0
S  3 1.00
3.386500000000E+01 2.549380000000E-02
5.094790000000E+00 1.903730000000E-01
1.158790000000E+00 8.521610000000E-01
S  1 1.00
3.258400000000E-01 1.000000000000E+00
S  1 1.00
1.027410000000E-01 1.000000000000E+00
S  1 1.00
3.600000000000E-02 1.000000000000E+00
P  1 1.00
1.500000000000E+00 1.000000000000E+00
P  1 1.00
3.750000000000E-01 1.000000000000E+00
****
C 0
S  6 1.00
4.563240000000E+03 1.966650000000E-03
6.820240000000E+02 1.523060000000E-02
1.549730000000E+02 7.612690000000E-02
4.445530000000E+01 2.608010000000E-01
1.302900000000E+01 6.164620000000E-01
1.827730000000E+00 2.210060000000E-01
S  3 1.00
2.096420000000E+01 1.146600000000E-01
4.803310000000E+00 9.199990000000E-01
1.459330000000E+00 -3.030680000000E-03
S  1 1.00
4.834560000000E-01 1.000000000000E+00
S  1 1.00
1.455850000000E-01 1.000000000000E+00
S  1 1.00
4.380000000000E-02 1.000000000000E+00
P  3 1.00
2.096420000000E+01 4.024870000000E-02
4.803310000000E+00 2.375940000000E-01
1.459330000000E+00 8.158540000000E-01
P  1 1.00
4.834560000000E-01 1.000000000000E+00
P  1 1.00
1.455850000000E-01 1.000000000000E+00
P  1 1.00
4.380000000000E-02 1.000000000000E+00
D  1 1.00
1.252000000000E+00 1.000000000000E+00
D  1 1.00
3.130000000000E-01 1.000000000000E+00
F  1 1.00
8.000000000000E-01 1.000000000000E+00
****
O  0
S  6 1.00
8.588500000000E+03 1.895150000000E-03
1.297230000000E+03 1.438590000000E-02
2.992960000000E+02 7.073200000000E-02
8.737710000000E+01 2.400010000000E-01
2.567890000000E+01 5.947970000000E-01
3.740040000000E+00 2.808020000000E-01
S  3 1.00
4.211750000000E+01 1.138890000000E-01
9.628370000000E+00 9.208110000000E-01
2.853320000000E+00 -3.274470000000E-03
S  1 1.00
9.056610000000E-01 1.000000000000E+00
S  1 1.00
2.556110000000E-01 1.000000000000E+00
S  1 1.00
8.450000000000E-02 1.000000000000E+00
P  3 1.00
4.211750000000E+01 3.651140000000E-02
9.628370000000E+00 2.371530000000E-01
2.853320000000E+00 8.197020000000E-01
P  1 1.00
9.056610000000E-01 1.000000000000E+00
P  1 1.00
2.556110000000E-01 1.000000000000E+00
P  1 1.00
8.450000000000E-02 1.000000000000E+00
D  1 1.00
2.584000000000E+00 1.000000000000E+00
D  1 1.00
6.460000000000E-01 1.000000000000E+00
F  1 1.00
1.400000000000E+00 1.000000000000E+00
****
--------------------------------------------------------------

 Total energy in the final basis set = -272.1687358061
    8    -272.1687356808      7.87E-09 Convergence criterion met
 Total energy in the final basis set = -272.1687356808
    9    -272.1687354538      8.13E-09 Convergence criterion met
 Total energy in the final basis set = -272.1687354538
   10    -272.1687354762      5.73E-09 Convergence criterion met
 Total energy in the final basis set = -272.1687354762
    8    -272.1687357015      9.71E-09 Convergence criterion met
 Total energy in the final basis set = -272.1687357015
    8    -272.1687355717      6.24E-09 Convergence criterion met
 Total energy in the final basis set = -272.1687355717
    9    -272.1687357775      7.79E-09 Convergence criterion met
 Total energy in the final basis set = -272.1687357775
   10    -272.1687356913      5.18E-09 Convergence criterion met
 Total energy in the final basis set = -272.1687356913

                    Orbital Energies (a.u.)
 --------------------------------------------------------------

 Alpha MOs
 -- Occupied --
-19.574 -10.537 -10.534 -10.503 -10.498 -10.498  -1.120  -0.922
 -0.823  -0.795  -0.723  -0.639  -0.581  -0.561  -0.532  -0.510
 -0.489  -0.487  -0.472  -0.445  -0.418  -0.417  -0.397  -0.350
 -0.309

 Beta MOs
 -- Occupied --
-19.557 -10.537 -10.525 -10.503 -10.499 -10.498  -1.088  -0.915
 -0.819  -0.793  -0.712  -0.623  -0.556  -0.553  -0.524  -0.503
 -0.482  -0.467  -0.465  -0.443  -0.417  -0.402  -0.371  -0.337

          Ground-State Mulliken Net Atomic Charges

     Atom                 Charge (a.u.)    Spin (a.u.)
  --------------------------------------------------------
      1 C                    -0.724705      -0.033849
      2 C                    -0.018586       0.484139
      3 C                    -0.639711      -0.025783
      4 C                    -0.284028       0.010982
      5 C                    -0.514962      -0.013008
      6 O                    -0.241669       0.526111
      7 H                     0.211144       0.003473
      8 H                     0.213349       0.032799
      9 H                     0.207762       0.000654
     10 H                     0.346462      -0.048705
     11 H                     0.203166       0.036902
     12 H                     0.196617       0.004437
     13 H                     0.194720       0.004228
     14 H                     0.199709      -0.002003
     15 H                     0.226840      -0.002592
     16 H                     0.209477       0.000758
     17 H                     0.214416       0.021456
  --------------------------------------------------------
  Sum of atomic charges =     0.000000

                    Cartesian Multipole Moments
 -----------------------------------------------------------------
    Charge (ESU x 10^10)
                 0.0000
    Dipole Moment (Debye)
         X      -1.7060      Y      -0.2486      Z       2.0062
       Tot       2.6452
    Quadrupole Moments (Debye-Ang)
        XX     -40.2678     XY      -0.2968     YY     -39.3551
        XZ       4.1441     YZ       0.4875     ZZ     -42.2778
    Octapole Moments (Debye-Ang^2)
       XXX       5.0479    XXY       0.1305    XYY       1.8904
       YYY       1.5372    XXZ       4.7333    XYZ       0.7978
       YYZ      -0.6046    XZZ      -4.8807    YZZ      -0.7892
       ZZZ       0.1064
    Hexadecapole Moments (Debye-Ang^3)
      XXXX    -496.0670   XXXY       4.7130   XXYY    -123.8142
      XYYY      -1.2756   YYYY    -234.0642   XXXZ       6.7421
      XXYZ       2.3749   XYYZ       0.8249   YYYZ       0.5809
      XXZZ    -115.9317   XYZZ       1.2816   YYZZ     -68.8927

       Standard Nuclear Orientation (Angstroms)
    I     Atom         X            Y            Z
 ----------------------------------------------------
    1      C      -1.010109    -1.453179     0.000767
    2      C      -0.634347     0.014187    -0.039576
    3      C      -1.797026     0.961869    -0.216655
    4      C       0.434829     0.420632     0.987306
    5      C       1.724254    -0.043749     0.295159
    6      O       1.489531     0.179363    -1.079922
    7      H      -1.613397    -1.737074    -0.870047
    8      H      -1.606844    -1.657022     0.904959
    9      H      -0.121183    -2.095388     0.031526
   10      H       0.182901     0.130824    -1.015918
   11      H      -2.419434     0.958508     0.694227
   12      H      -2.437661     0.663436    -1.055916
   13      H      -1.453578     1.990217    -0.381678
   14      H       0.272567    -0.023049     1.980391
   15      H       0.444073     1.513822     1.092016
   16      H       1.921906    -1.110941     0.495817
   17      H       2.608789     0.533203     0.601994
 ----------------------------------------------------

 Frequency:     -1533.35                 123.06                 188.41
 Force Cnst:      1.5167                 0.0266                 0.0230
 Red. Mass:       1.0949                 2.9762                 1.0997
 IR Intens:        0.000                  0.000                  0.000
 Frequency:       208.53                 213.71                 290.02
 Force Cnst:      0.0272                 0.0536                 0.1233
 Red. Mass:       1.0613                 1.9919                 2.4886
 IR Intens:        0.000                  0.000                  0.000
 Frequency:       349.10                 360.78                 537.72
 Force Cnst:      0.1435                 0.1532                 0.5313
 Red. Mass:       1.9990                 1.9975                 3.1190
 IR Intens:        0.000                  0.000                  0.000
 Frequency:       610.67                 771.50                 889.37
 Force Cnst:      0.6807                 0.7456                 0.8937
 Red. Mass:       3.0980                 2.1262                 1.9177
 IR Intens:        0.000                  0.000                  0.000
 Frequency:       913.29                 949.27                 952.25
 Force Cnst:      0.6187                 0.9454                 0.8278
 Red. Mass:       1.2590                 1.7807                 1.5495
 IR Intens:        0.000                  0.000                  0.000
 Frequency:       972.17                1027.23                1061.49
 Force Cnst:      0.8045                 1.0504                 2.1203
 Red. Mass:       1.4447                 1.6895                 3.1938
 IR Intens:        0.000                  0.000                  0.000
 Frequency:      1110.26                1137.41                1184.35
 Force Cnst:      1.0211                 1.1668                 1.1464
 Red. Mass:       1.4059                 1.5308                 1.3871
 IR Intens:        0.000                  0.000                  0.000
 Frequency:      1213.39                1243.19                1284.74
 Force Cnst:      1.2317                 1.7076                 2.1981
 Red. Mass:       1.4199                 1.8753                 2.2603
 IR Intens:        0.000                  0.000                  0.000
 Frequency:      1323.99                1351.81                1384.15
 Force Cnst:      1.6883                 1.4169                 1.6050
 Red. Mass:       1.6347                 1.3160                 1.4219
 IR Intens:        0.000                  0.000                  0.000
 Frequency:      1393.90                1449.02                1457.01
 Force Cnst:      1.4436                 1.3175                 1.3241
 Red. Mass:       1.2611                 1.0650                 1.0586
 IR Intens:        0.000                  0.000                  0.000
 Frequency:      1464.25                1470.26                1476.22
 Force Cnst:      1.3594                 1.3744                 1.3606
 Red. Mass:       1.0762                 1.0792                 1.0597
 IR Intens:        0.000                  0.000                  0.000
 Frequency:      1500.94                1759.62                2949.03
 Force Cnst:      1.4458                 1.9108                 5.4585
 Red. Mass:       1.0893                 1.0475                 1.0653
 IR Intens:        0.000                  0.000                  0.000
 Frequency:      2949.58                2957.54                2989.09
 Force Cnst:      5.3616                 5.3798                 5.5828
 Red. Mass:       1.0460                 1.0439                 1.0605
 IR Intens:        0.000                  0.000                  0.000
 Frequency:      3009.58                3023.84                3030.26
 Force Cnst:      5.8433                 5.8589                 5.8965
 Red. Mass:       1.0950                 1.0875                 1.0899
 IR Intens:        0.000                  0.000                  0.000
 Frequency:      3039.28                3058.66                3061.06
 Force Cnst:      6.0184                 6.0770                 6.0864
 Red. Mass:       1.1058                 1.1025                 1.1025
 IR Intens:        0.000                  0.000                  0.000

 STANDARD THERMODYNAMIC QUANTITIES AT   298.15 K  AND     1.00 ATM

   This Molecule has  1 Imaginary Frequencies
   Zero point vibrational energy:       91.051 kcal/mol

   Atom    1 Element C  Has Mass   12.00000
   Atom    2 Element C  Has Mass   12.00000
   Atom    3 Element C  Has Mass   12.00000
   Atom    4 Element C  Has Mass   12.00000
   Atom    5 Element C  Has Mass   12.00000
   Atom    6 Element O  Has Mass   15.99491
   Atom    7 Element H  Has Mass    1.00783
   Atom    8 Element H  Has Mass    1.00783
   Atom    9 Element H  Has Mass    1.00783
   Atom   10 Element H  Has Mass    1.00783
   Atom   11 Element H  Has Mass    1.00783
   Atom   12 Element H  Has Mass    1.00783
   Atom   13 Element H  Has Mass    1.00783
   Atom   14 Element H  Has Mass    1.00783
   Atom   15 Element H  Has Mass    1.00783
   Atom   16 Element H  Has Mass    1.00783
   Atom   17 Element H  Has Mass    1.00783
   Molecular Mass:    87.081040 amu
   Principal axes and moments of inertia in atomic units:
                             1           2           3
    Eigenvalues --      358.61025   718.75891   778.28209
          X               0.99917    -0.01193     0.03893
          Y               0.01118     0.99975     0.01947
          Z              -0.03916    -0.01902     0.99905
   Rotational Symmetry Number is   1
   The Molecule is an Asymmetric Top
   Translational Enthalpy:        0.889 kcal/mol
   Rotational Enthalpy:           0.889 kcal/mol
   Vibrational Enthalpy:         93.822 kcal/mol
   gas constant (RT):             0.592 kcal/mol
   Translational Entropy:        39.306  cal/mol.K
   Rotational Entropy:           26.797  cal/mol.K
   Vibrational Entropy:          15.556  cal/mol.K

   Total Enthalpy:               96.192 kcal/mol
   Total Entropy:                81.659  cal/mol.K

 Total job time:  94031.81s(wall), 93499.26s(cpu)
        *  Thank you very much for using Q-Chem.  Have a nice day.  *
