User input:
--------------------------------------------------------------
$rem
XC_GRID 000075000434
JOBTYPE ts
EXCHANGE M08SO
BASIS gen
GUI=2
UNRESTRICTED TRUE
CORRELATION NONE
$end

$comment
c5h11o-2
$end

$molecule
0 2
O         1.622529    0.644877   -0.557365
H         0.572153    1.280324   -0.315703
C        -0.565227    1.442870    0.260979
H        -0.298358    2.009772    1.157821
H        -1.185245    2.013937   -0.436757
C         1.341809   -0.685249   -0.227701
H         1.001302   -1.253254   -1.110881
H         2.283479   -1.139373    0.124649
C        -0.967490    0.001754    0.494139
H        -1.675182   -0.046961    1.339786
C        -1.637357   -0.586726   -0.752758
H        -2.602085   -0.099731   -0.941808
H        -1.811483   -1.665114   -0.643487
H        -1.007963   -0.429164   -1.639710
C         0.295725   -0.783198    0.896283
H         0.060243   -1.838418    1.092584
H         0.719527   -0.350808    1.814423
$end

$basis
H  0
S  3 1.00
3.386500000000E+01 2.549380000000E-02
5.094790000000E+00 1.903730000000E-01
1.158790000000E+00 8.521610000000E-01
S  1 1.00
3.258400000000E-01 1.000000000000E+00
S  1 1.00
1.027410000000E-01 1.000000000000E+00
S  1 1.00
3.600000000000E-02 1.000000000000E+00
P  1 1.00
1.500000000000E+00 1.000000000000E+00
P  1 1.00
3.750000000000E-01 1.000000000000E+00
****
C 0
S  6 1.00
4.563240000000E+03 1.966650000000E-03
6.820240000000E+02 1.523060000000E-02
1.549730000000E+02 7.612690000000E-02
4.445530000000E+01 2.608010000000E-01
1.302900000000E+01 6.164620000000E-01
1.827730000000E+00 2.210060000000E-01
S  3 1.00
2.096420000000E+01 1.146600000000E-01
4.803310000000E+00 9.199990000000E-01
1.459330000000E+00 -3.030680000000E-03
S  1 1.00
4.834560000000E-01 1.000000000000E+00
S  1 1.00
1.455850000000E-01 1.000000000000E+00
S  1 1.00
4.380000000000E-02 1.000000000000E+00
P  3 1.00
2.096420000000E+01 4.024870000000E-02
4.803310000000E+00 2.375940000000E-01
1.459330000000E+00 8.158540000000E-01
P  1 1.00
4.834560000000E-01 1.000000000000E+00
P  1 1.00
1.455850000000E-01 1.000000000000E+00
P  1 1.00
4.380000000000E-02 1.000000000000E+00
D  1 1.00
1.252000000000E+00 1.000000000000E+00
D  1 1.00
3.130000000000E-01 1.000000000000E+00
F  1 1.00
8.000000000000E-01 1.000000000000E+00
****
O  0
S  6 1.00
8.588500000000E+03 1.895150000000E-03
1.297230000000E+03 1.438590000000E-02
2.992960000000E+02 7.073200000000E-02
8.737710000000E+01 2.400010000000E-01
2.567890000000E+01 5.947970000000E-01
3.740040000000E+00 2.808020000000E-01
S  3 1.00
4.211750000000E+01 1.138890000000E-01
9.628370000000E+00 9.208110000000E-01
2.853320000000E+00 -3.274470000000E-03
S  1 1.00
9.056610000000E-01 1.000000000000E+00
S  1 1.00
2.556110000000E-01 1.000000000000E+00
S  1 1.00
8.450000000000E-02 1.000000000000E+00
P  3 1.00
4.211750000000E+01 3.651140000000E-02
9.628370000000E+00 2.371530000000E-01
2.853320000000E+00 8.197020000000E-01
P  1 1.00
9.056610000000E-01 1.000000000000E+00
P  1 1.00
2.556110000000E-01 1.000000000000E+00
P  1 1.00
8.450000000000E-02 1.000000000000E+00
D  1 1.00
2.584000000000E+00 1.000000000000E+00
D  1 1.00
6.460000000000E-01 1.000000000000E+00
F  1 1.00
1.400000000000E+00 1.000000000000E+00
****
$end

--------------------------------------------------------------

   22    -272.1773279853      7.88E-09 Convergence criterion met
 Total energy in the final basis set = -272.1773279853
   13    -272.1772354226      4.74E-09 Convergence criterion met
 Total energy in the final basis set = -272.1772354226
   12    -272.1770330992      6.50E-09 Convergence criterion met
 Total energy in the final basis set = -272.1770330992
   12    -272.1766381794      7.65E-09 Convergence criterion met
 Total energy in the final basis set = -272.1766381794
   12    -272.1760179706      8.47E-09 Convergence criterion met
 Total energy in the final basis set = -272.1760179706
   13    -272.1751206250      4.61E-09 Convergence criterion met
 Total energy in the final basis set = -272.1751206250
   13    -272.1743974291      4.90E-09 Convergence criterion met
 Total energy in the final basis set = -272.1743974291
   13    -272.1742272074      4.71E-09 Convergence criterion met
 **  OPTIMIZATION CONVERGED  **
 Total job time:  42747.36s(wall), 42178.68s(cpu)
        *  Thank you very much for using Q-Chem.  Have a nice day.  *

User input:
--------------------------------------------------------------

$molecule
READ
$end

$rem
JOBTYPE Freq
XC_GRID 000075000434
EXCHANGE M08SO
BASIS gen
GUI=2
SCF_GUESS READ
$end

$basis
H  0
S  3 1.00
3.386500000000E+01 2.549380000000E-02
5.094790000000E+00 1.903730000000E-01
1.158790000000E+00 8.521610000000E-01
S  1 1.00
3.258400000000E-01 1.000000000000E+00
S  1 1.00
1.027410000000E-01 1.000000000000E+00
S  1 1.00
3.600000000000E-02 1.000000000000E+00
P  1 1.00
1.500000000000E+00 1.000000000000E+00
P  1 1.00
3.750000000000E-01 1.000000000000E+00
****
C 0
S  6 1.00
4.563240000000E+03 1.966650000000E-03
6.820240000000E+02 1.523060000000E-02
1.549730000000E+02 7.612690000000E-02
4.445530000000E+01 2.608010000000E-01
1.302900000000E+01 6.164620000000E-01
1.827730000000E+00 2.210060000000E-01
S  3 1.00
2.096420000000E+01 1.146600000000E-01
4.803310000000E+00 9.199990000000E-01
1.459330000000E+00 -3.030680000000E-03
S  1 1.00
4.834560000000E-01 1.000000000000E+00
S  1 1.00
1.455850000000E-01 1.000000000000E+00
S  1 1.00
4.380000000000E-02 1.000000000000E+00
P  3 1.00
2.096420000000E+01 4.024870000000E-02
4.803310000000E+00 2.375940000000E-01
1.459330000000E+00 8.158540000000E-01
P  1 1.00
4.834560000000E-01 1.000000000000E+00
P  1 1.00
1.455850000000E-01 1.000000000000E+00
P  1 1.00
4.380000000000E-02 1.000000000000E+00
D  1 1.00
1.252000000000E+00 1.000000000000E+00
D  1 1.00
3.130000000000E-01 1.000000000000E+00
F  1 1.00
8.000000000000E-01 1.000000000000E+00
****
O  0
S  6 1.00
8.588500000000E+03 1.895150000000E-03
1.297230000000E+03 1.438590000000E-02
2.992960000000E+02 7.073200000000E-02
8.737710000000E+01 2.400010000000E-01
2.567890000000E+01 5.947970000000E-01
3.740040000000E+00 2.808020000000E-01
S  3 1.00
4.211750000000E+01 1.138890000000E-01
9.628370000000E+00 9.208110000000E-01
2.853320000000E+00 -3.274470000000E-03
S  1 1.00
9.056610000000E-01 1.000000000000E+00
S  1 1.00
2.556110000000E-01 1.000000000000E+00
S  1 1.00
8.450000000000E-02 1.000000000000E+00
P  3 1.00
4.211750000000E+01 3.651140000000E-02
9.628370000000E+00 2.371530000000E-01
2.853320000000E+00 8.197020000000E-01
P  1 1.00
9.056610000000E-01 1.000000000000E+00
P  1 1.00
2.556110000000E-01 1.000000000000E+00
P  1 1.00
8.450000000000E-02 1.000000000000E+00
D  1 1.00
2.584000000000E+00 1.000000000000E+00
D  1 1.00
6.460000000000E-01 1.000000000000E+00
F  1 1.00
1.400000000000E+00 1.000000000000E+00
****
--------------------------------------------------------------

 Total energy in the final basis set = -272.1773277046
    7    -272.1773277068      5.74E-09 Convergence criterion met
 Total energy in the final basis set = -272.1773277068
    7    -272.1773276525      6.87E-09 Convergence criterion met
 Total energy in the final basis set = -272.1773276525
    8    -272.1773276400      3.39E-09 Convergence criterion met
 Total energy in the final basis set = -272.1773276400
    7    -272.1773276292      5.85E-09 Convergence criterion met
 Total energy in the final basis set = -272.1773276292
    7    -272.1773276464      9.65E-09 Convergence criterion met
 Total energy in the final basis set = -272.1773276464
    8    -272.1773273843      2.30E-09 Convergence criterion met
 Total energy in the final basis set = -272.1773273843
    8    -272.1773273897      3.22E-09 Convergence criterion met
 Total energy in the final basis set = -272.1773273897

                    Orbital Energies (a.u.)
 --------------------------------------------------------------

 Alpha MOs
 -- Occupied --
-19.575 -10.540 -10.515 -10.512 -10.504 -10.492  -1.124  -0.924
 -0.827  -0.788  -0.709  -0.657  -0.592  -0.552  -0.528  -0.520
 -0.494  -0.492  -0.450  -0.432  -0.424  -0.412  -0.406  -0.352
 -0.303

 Beta MOs
 -- Occupied --
-19.559 -10.540 -10.515 -10.503 -10.502 -10.492  -1.092  -0.918
 -0.819  -0.781  -0.699  -0.643  -0.577  -0.549  -0.523  -0.495
 -0.490  -0.477  -0.445  -0.416  -0.408  -0.403  -0.393  -0.339

          Ground-State Mulliken Net Atomic Charges

     Atom                 Charge (a.u.)    Spin (a.u.)
  --------------------------------------------------------
      1 O                    -0.252479       0.483720
      2 H                     0.374452      -0.040321
      3 C                    -0.876033       0.528851
      4 H                     0.217219      -0.016986
      5 H                     0.225163      -0.012634
      6 C                    -0.537810      -0.021271
      7 H                     0.220978       0.003098
      8 H                     0.234500       0.042888
      9 C                     0.252596      -0.060346
     10 H                     0.283348       0.044971
     11 C                    -0.815034       0.005406
     12 H                     0.205511       0.000769
     13 H                     0.199858      -0.000994
     14 H                     0.243307       0.000230
     15 C                    -0.479872       0.044494
     16 H                     0.247484      -0.002031
     17 H                     0.256811       0.000155
  --------------------------------------------------------
  Sum of atomic charges =     0.000000

                    Cartesian Multipole Moments
 -----------------------------------------------------------------
    Charge (ESU x 10^10)
                 0.0000
    Dipole Moment (Debye)
         X      -1.8764      Y      -1.1091      Z       1.1188
       Tot       2.4500
    Quadrupole Moments (Debye-Ang)
        XX     -42.5668     XY      -3.4996     YY     -39.1368
        XZ       1.7860     YZ       0.8229     ZZ     -40.2648
    Octapole Moments (Debye-Ang^2)
       XXX       0.1455    XXY      -5.5456    XYY      -0.1124
       YYY       2.1298    XXZ       2.5533    XYZ       2.2728
       YYZ       0.5654    XZZ       0.5548    YZZ       0.7672
       ZZZ       0.7321
    Hexadecapole Moments (Debye-Ang^3)
      XXXX    -420.8741   XXXY     -13.0971   XXYY    -115.8787
      XYYY       2.5993   YYYY    -251.4570   XXXZ       3.4942
      XXYZ      -0.5054   XYYZ       1.0781   YYYZ      -2.2200
      XXZZ    -101.1916   XYZZ      -1.2751   YYZZ     -70.8979

       Standard Nuclear Orientation (Angstroms)
    I     Atom         X            Y            Z
 ----------------------------------------------------
    1      O       1.616595     0.657460    -0.561779
    2      H       0.561668     1.285379    -0.322810
    3      C      -0.583135     1.439666     0.241151
    4      H      -0.332939     2.021621     1.133174
    5      H      -1.204014     1.993046    -0.469889
    6      C       1.355210    -0.670754    -0.209286
    7      H       1.028968    -1.259919    -1.083989
    8      H       2.301427    -1.103705     0.157274
    9      C      -0.967290    -0.003954     0.488500
   10      H      -1.681209    -0.052839     1.328886
   11      C      -1.617799    -0.616803    -0.756709
   12      H      -2.587254    -0.145226    -0.960275
   13      H      -1.778333    -1.696045    -0.635558
   14      H      -0.982402    -0.461449    -1.639785
   15      C       0.303679    -0.765673     0.910085
   16      H       0.081428    -1.821081     1.120407
   17      H       0.715906    -0.314356     1.824355
 ----------------------------------------------------

 Frequency:     -1700.49                  93.49                 214.90
 Force Cnst:      1.8354                 0.0181                 0.0339
 Red. Mass:       1.0773                 3.5093                 1.2461
 IR Intens:        0.000                  0.000                  0.000
 Frequency:       302.35                 346.78                 366.93
 Force Cnst:      0.0881                 0.1314                 0.1453
 Red. Mass:       1.6358                 1.8551                 1.8319
 IR Intens:        0.000                  0.000                  0.000
 Frequency:       411.17                 492.18                 540.49
 Force Cnst:      0.1278                 0.4659                 0.5487
 Red. Mass:       1.2825                 3.2641                 3.1881
 IR Intens:        0.000                  0.000                  0.000
 Frequency:       650.02                 795.63                 873.97
 Force Cnst:      0.5562                 0.9679                 0.8775
 Red. Mass:       2.2343                 2.5951                 1.9498
 IR Intens:        0.000                  0.000                  0.000
 Frequency:       903.80                 933.88                 970.94
 Force Cnst:      0.8672                 0.6619                 0.7724
 Red. Mass:       1.8018                 1.2882                 1.3906
 IR Intens:        0.000                  0.000                  0.000
 Frequency:       989.69                 996.07                1075.40
 Force Cnst:      0.9778                 0.8591                 1.0708
 Red. Mass:       1.6944                 1.4697                 1.5715
 IR Intens:        0.000                  0.000                  0.000
 Frequency:      1092.48                1152.62                1163.63
 Force Cnst:      1.8649                 1.1547                 1.3921
 Red. Mass:       2.6520                 1.4751                 1.7450
 IR Intens:        0.000                  0.000                  0.000
 Frequency:      1187.07                1210.80                1227.02
 Force Cnst:      1.0463                 1.1057                 1.0893
 Red. Mass:       1.2602                 1.2801                 1.2280
 IR Intens:        0.000                  0.000                  0.000
 Frequency:      1280.20                1332.80                1338.79
 Force Cnst:      1.6660                 1.7215                 1.4362
 Red. Mass:       1.7254                 1.6449                 1.3601
 IR Intens:        0.000                  0.000                  0.000
 Frequency:      1358.63                1395.39                1435.31
 Force Cnst:      1.3609                 1.5160                 1.3876
 Red. Mass:       1.2513                 1.3215                 1.1432
 IR Intens:        0.000                  0.000                  0.000
 Frequency:      1457.09                1473.32                1478.43
 Force Cnst:      1.3639                 1.3442                 1.3886
 Red. Mass:       1.0904                 1.0511                 1.0783
 IR Intens:        0.000                  0.000                  0.000
 Frequency:      1498.86                1518.85                2945.03
 Force Cnst:      1.4090                 1.4691                 5.5258
 Red. Mass:       1.0645                 1.0809                 1.0814
 IR Intens:        0.000                  0.000                  0.000
 Frequency:      2951.95                2976.41                2980.34
 Force Cnst:      5.4179                 5.4931                 5.5405
 Red. Mass:       1.0553                 1.0524                 1.0587
 IR Intens:        0.000                  0.000                  0.000
 Frequency:      2990.94                3031.74                3041.26
 Force Cnst:      5.7389                 5.9855                 5.7480
 Red. Mass:       1.0888                 1.1053                 1.0548
 IR Intens:        0.000                  0.000                  0.000
 Frequency:      3047.92                3055.14                3122.76
 Force Cnst:      6.0274                 6.0612                 6.3842
 Red. Mass:       1.1012                 1.1022                 1.1112
 IR Intens:        0.000                  0.000                  0.000

 STANDARD THERMODYNAMIC QUANTITIES AT   298.15 K  AND     1.00 ATM

   This Molecule has  1 Imaginary Frequencies
   Zero point vibrational energy:       91.067 kcal/mol

   Atom    1 Element O  Has Mass   15.99491
   Atom    2 Element H  Has Mass    1.00783
   Atom    3 Element C  Has Mass   12.00000
   Atom    4 Element H  Has Mass    1.00783
   Atom    5 Element H  Has Mass    1.00783
   Atom    6 Element C  Has Mass   12.00000
   Atom    7 Element H  Has Mass    1.00783
   Atom    8 Element H  Has Mass    1.00783
   Atom    9 Element C  Has Mass   12.00000
   Atom   10 Element H  Has Mass    1.00783
   Atom   11 Element C  Has Mass   12.00000
   Atom   12 Element H  Has Mass    1.00783
   Atom   13 Element H  Has Mass    1.00783
   Atom   14 Element H  Has Mass    1.00783
   Atom   15 Element C  Has Mass   12.00000
   Atom   16 Element H  Has Mass    1.00783
   Atom   17 Element H  Has Mass    1.00783
   Molecular Mass:    87.081040 amu
   Principal axes and moments of inertia in atomic units:
                             1           2           3
    Eigenvalues --      381.87420   618.96572   722.11885
          X               0.99851    -0.04059     0.03650
          Y               0.03892     0.99822     0.04514
          Z              -0.03827    -0.04365     0.99831
   Rotational Symmetry Number is   1
   The Molecule is an Asymmetric Top
   Translational Enthalpy:        0.889 kcal/mol
   Rotational Enthalpy:           0.889 kcal/mol
   Vibrational Enthalpy:         93.482 kcal/mol
   gas constant (RT):             0.592 kcal/mol
   Translational Entropy:        39.306  cal/mol.K
   Rotational Entropy:           26.637  cal/mol.K
   Vibrational Entropy:          13.270  cal/mol.K

   Total Enthalpy:               95.852 kcal/mol
   Total Entropy:                79.212  cal/mol.K

 Total job time:  71348.24s(wall), 69222.13s(cpu)
        *  Thank you very much for using Q-Chem.  Have a nice day.  *
