User input:
--------------------------------------------------------------
$rem
XC_GRID 000075000434
JOBTYPE ts
EXCHANGE M08SO
BASIS gen
GUI=2
UNRESTRICTED TRUE
CORRELATION NONE
$end

$comment
c5h11o-2
$end

$molecule
0 2
C
H  1 1.094731
C  1 1.503455 2 108.127248
H  3 1.084736 1 119.711435 2 158.729841 0
H  3 1.315070 1 121.268440 2 22.581460 0
C  5 1.301532 3 68.687356 1 -108.356255 0
H  6 1.082531 5 109.799860 3 111.323851 0
O  6 1.372940 5 122.198845 3 -108.137252 0
H  8 0.964187 6 108.958526 5 93.379900 0
C  1 1.525708 2 108.372825 3 120.762737 0
H  10 1.089144 1 111.118857 2 -59.513740 0
H  10 1.089819 1 111.034624 2 61.566915 0
H  10 1.091715 1 110.104458 2 -179.091647 0
C  1 1.534426 2 107.616983 3 -119.270670 0
H  14 1.089965 1 110.878915 2 62.659004 0
H  14 1.090881 1 111.083056 2 -57.964326 0
H  14 1.091590 1 110.080129 2 -177.620090 0
$end

$basis
H  0
S  3 1.00
3.386500000000E+01 2.549380000000E-02
5.094790000000E+00 1.903730000000E-01
1.158790000000E+00 8.521610000000E-01
S  1 1.00
3.258400000000E-01 1.000000000000E+00
S  1 1.00
1.027410000000E-01 1.000000000000E+00
S  1 1.00
3.600000000000E-02 1.000000000000E+00
P  1 1.00
1.500000000000E+00 1.000000000000E+00
P  1 1.00
3.750000000000E-01 1.000000000000E+00
****
C 0
S  6 1.00
4.563240000000E+03 1.966650000000E-03
6.820240000000E+02 1.523060000000E-02
1.549730000000E+02 7.612690000000E-02
4.445530000000E+01 2.608010000000E-01
1.302900000000E+01 6.164620000000E-01
1.827730000000E+00 2.210060000000E-01
S  3 1.00
2.096420000000E+01 1.146600000000E-01
4.803310000000E+00 9.199990000000E-01
1.459330000000E+00 -3.030680000000E-03
S  1 1.00
4.834560000000E-01 1.000000000000E+00
S  1 1.00
1.455850000000E-01 1.000000000000E+00
S  1 1.00
4.380000000000E-02 1.000000000000E+00
P  3 1.00
2.096420000000E+01 4.024870000000E-02
4.803310000000E+00 2.375940000000E-01
1.459330000000E+00 8.158540000000E-01
P  1 1.00
4.834560000000E-01 1.000000000000E+00
P  1 1.00
1.455850000000E-01 1.000000000000E+00
P  1 1.00
4.380000000000E-02 1.000000000000E+00
D  1 1.00
1.252000000000E+00 1.000000000000E+00
D  1 1.00
3.130000000000E-01 1.000000000000E+00
F  1 1.00
8.000000000000E-01 1.000000000000E+00
****
O  0
S  6 1.00
8.588500000000E+03 1.895150000000E-03
1.297230000000E+03 1.438590000000E-02
2.992960000000E+02 7.073200000000E-02
8.737710000000E+01 2.400010000000E-01
2.567890000000E+01 5.947970000000E-01
3.740040000000E+00 2.808020000000E-01
S  3 1.00
4.211750000000E+01 1.138890000000E-01
9.628370000000E+00 9.208110000000E-01
2.853320000000E+00 -3.274470000000E-03
S  1 1.00
9.056610000000E-01 1.000000000000E+00
S  1 1.00
2.556110000000E-01 1.000000000000E+00
S  1 1.00
8.450000000000E-02 1.000000000000E+00
P  3 1.00
4.211750000000E+01 3.651140000000E-02
9.628370000000E+00 2.371530000000E-01
2.853320000000E+00 8.197020000000E-01
P  1 1.00
9.056610000000E-01 1.000000000000E+00
P  1 1.00
2.556110000000E-01 1.000000000000E+00
P  1 1.00
8.450000000000E-02 1.000000000000E+00
D  1 1.00
2.584000000000E+00 1.000000000000E+00
D  1 1.00
6.460000000000E-01 1.000000000000E+00
F  1 1.00
1.400000000000E+00 1.000000000000E+00
****
$end

--------------------------------------------------------------

   20    -272.1397182103      7.42E-09 Convergence criterion met
 Total energy in the final basis set = -272.1397182103
   11    -272.1395543835      4.14E-09 Convergence criterion met
 Total energy in the final basis set = -272.1395543835
   11    -272.1392313004      3.24E-09 Convergence criterion met
 Total energy in the final basis set = -272.1392313004
   11    -272.1387597079      3.57E-09 Convergence criterion met
 Total energy in the final basis set = -272.1387597079
   11    -272.1381536582      4.68E-09 Convergence criterion met
 Total energy in the final basis set = -272.1381536582
   11    -272.1374445742      6.01E-09 Convergence criterion met
 Total energy in the final basis set = -272.1374445742
   11    -272.1366967855      8.70E-09 Convergence criterion met
 Total energy in the final basis set = -272.1366967855
   12    -272.1360282346      5.20E-09 Convergence criterion met
 **  OPTIMIZATION CONVERGED  **
 Total job time:  19527.58s(wall), 18361.10s(cpu)
        *  Thank you very much for using Q-Chem.  Have a nice day.  *

User input:
--------------------------------------------------------------

$molecule
READ
$end

$rem
JOBTYPE Freq
XC_GRID 000075000434
EXCHANGE M08SO
BASIS gen
GUI=2
SCF_GUESS READ
$end

$basis
H  0
S  3 1.00
3.386500000000E+01 2.549380000000E-02
5.094790000000E+00 1.903730000000E-01
1.158790000000E+00 8.521610000000E-01
S  1 1.00
3.258400000000E-01 1.000000000000E+00
S  1 1.00
1.027410000000E-01 1.000000000000E+00
S  1 1.00
3.600000000000E-02 1.000000000000E+00
P  1 1.00
1.500000000000E+00 1.000000000000E+00
P  1 1.00
3.750000000000E-01 1.000000000000E+00
****
C 0
S  6 1.00
4.563240000000E+03 1.966650000000E-03
6.820240000000E+02 1.523060000000E-02
1.549730000000E+02 7.612690000000E-02
4.445530000000E+01 2.608010000000E-01
1.302900000000E+01 6.164620000000E-01
1.827730000000E+00 2.210060000000E-01
S  3 1.00
2.096420000000E+01 1.146600000000E-01
4.803310000000E+00 9.199990000000E-01
1.459330000000E+00 -3.030680000000E-03
S  1 1.00
4.834560000000E-01 1.000000000000E+00
S  1 1.00
1.455850000000E-01 1.000000000000E+00
S  1 1.00
4.380000000000E-02 1.000000000000E+00
P  3 1.00
2.096420000000E+01 4.024870000000E-02
4.803310000000E+00 2.375940000000E-01
1.459330000000E+00 8.158540000000E-01
P  1 1.00
4.834560000000E-01 1.000000000000E+00
P  1 1.00
1.455850000000E-01 1.000000000000E+00
P  1 1.00
4.380000000000E-02 1.000000000000E+00
D  1 1.00
1.252000000000E+00 1.000000000000E+00
D  1 1.00
3.130000000000E-01 1.000000000000E+00
F  1 1.00
8.000000000000E-01 1.000000000000E+00
****
O  0
S  6 1.00
8.588500000000E+03 1.895150000000E-03
1.297230000000E+03 1.438590000000E-02
2.992960000000E+02 7.073200000000E-02
8.737710000000E+01 2.400010000000E-01
2.567890000000E+01 5.947970000000E-01
3.740040000000E+00 2.808020000000E-01
S  3 1.00
4.211750000000E+01 1.138890000000E-01
9.628370000000E+00 9.208110000000E-01
2.853320000000E+00 -3.274470000000E-03
S  1 1.00
9.056610000000E-01 1.000000000000E+00
S  1 1.00
2.556110000000E-01 1.000000000000E+00
S  1 1.00
8.450000000000E-02 1.000000000000E+00
P  3 1.00
4.211750000000E+01 3.651140000000E-02
9.628370000000E+00 2.371530000000E-01
2.853320000000E+00 8.197020000000E-01
P  1 1.00
9.056610000000E-01 1.000000000000E+00
P  1 1.00
2.556110000000E-01 1.000000000000E+00
P  1 1.00
8.450000000000E-02 1.000000000000E+00
D  1 1.00
2.584000000000E+00 1.000000000000E+00
D  1 1.00
6.460000000000E-01 1.000000000000E+00
F  1 1.00
1.400000000000E+00 1.000000000000E+00
****
--------------------------------------------------------------

 Total energy in the final basis set = -272.1402452967
    7    -272.1402453542      6.30E-09 Convergence criterion met
 Total energy in the final basis set = -272.1402453542
    6    -272.1402454001      7.07E-09 Convergence criterion met
 Total energy in the final basis set = -272.1402454001
    7    -272.1402453993      4.07E-09 Convergence criterion met
 Total energy in the final basis set = -272.1402453993
    7    -272.1402453887      2.37E-09 Convergence criterion met
 Total energy in the final basis set = -272.1402453887
    7    -272.1402453974      3.55E-09 Convergence criterion met
 Total energy in the final basis set = -272.1402453974
    7    -272.1402449084      9.00E-09 Convergence criterion met
 Total energy in the final basis set = -272.1402449084
    8    -272.1402449127      3.70E-09 Convergence criterion met
 Total energy in the final basis set = -272.1402449127

                    Orbital Energies (a.u.)
 --------------------------------------------------------------

 Alpha MOs
 -- Occupied --
-19.585 -10.560 -10.513 -10.512 -10.488 -10.487  -1.162  -0.929
 -0.853  -0.780  -0.714  -0.662  -0.603  -0.567  -0.534  -0.518
 -0.495  -0.481  -0.458  -0.434  -0.419  -0.408  -0.403  -0.370
 -0.191

 Beta MOs
 -- Occupied --
-19.583 -10.550 -10.513 -10.504 -10.487 -10.487  -1.156  -0.923
 -0.843  -0.779  -0.704  -0.658  -0.595  -0.556  -0.525  -0.514
 -0.489  -0.479  -0.457  -0.429  -0.414  -0.403  -0.398  -0.353

          Ground-State Mulliken Net Atomic Charges

     Atom                 Charge (a.u.)    Spin (a.u.)
  --------------------------------------------------------
      1 C                    -0.196281      -0.060818
      2 H                     0.254698       0.013679
      3 C                    -0.207425       0.521604
      4 H                     0.265638      -0.024930
      5 H                     0.233569      -0.074125
      6 C                    -0.429764       0.552257
      7 H                     0.243174      -0.010732
      8 O                    -0.300037       0.003379
      9 H                     0.265419       0.036898
     10 C                    -0.647871       0.009222
     11 H                     0.195183      -0.000488
     12 H                     0.193209      -0.000642
     13 H                     0.204470       0.002761
     14 C                    -0.679533       0.021663
     15 H                     0.196461       0.001455
     16 H                     0.196233       0.007179
     17 H                     0.212857       0.001639
  --------------------------------------------------------
  Sum of atomic charges =     0.000000

                    Cartesian Multipole Moments
 -----------------------------------------------------------------
    Charge (ESU x 10^10)
                 0.0000
    Dipole Moment (Debye)
         X      -1.5918      Y      -0.3243      Z       0.5552
       Tot       1.7168
    Quadrupole Moments (Debye-Ang)
        XX     -47.7320     XY      -0.8500     YY     -41.4144
        XZ       2.4676     YZ       0.0981     ZZ     -37.6515
    Octapole Moments (Debye-Ang^2)
       XXX     -18.2931    XXY      -4.5517    XYY       4.0136
       YYY      -0.6469    XXZ       5.3666    XYZ      -0.6968
       YYZ      -0.2155    XZZ       8.8668    YZZ      -1.3972
       ZZZ       4.9041
    Hexadecapole Moments (Debye-Ang^3)
      XXXX    -867.1657   XXXY      -5.6025   XXYY    -171.6703
      XYYY      -3.2179   YYYY    -241.5154   XXXZ      26.0277
      XXYZ      -0.9521   XYYZ       3.3029   YYYZ      -0.0621
      XXZZ    -133.6571   XYZZ      -4.3570   YYZZ     -57.6959

       Standard Nuclear Orientation (Angstroms)
    I     Atom         X            Y            Z
 ----------------------------------------------------
    1      C      -1.013559     0.010063    -0.334327
    2      H      -1.003476     0.014464    -1.437728
    3      C       0.309095     0.552977     0.148720
    4      H       0.394052     0.980048     1.149499
    5      H       1.030376     1.308496    -0.656467
    6      C       1.574635     0.126216    -0.489897
    7      H       1.518805    -0.458505    -1.408475
    8      O       2.717733    -0.018641     0.259252
    9      H       2.483376    -0.290033     1.158199
   10      C      -2.179116     0.881442     0.142505
   11      H      -2.078259     1.912360    -0.218305
   12      H      -3.139591     0.481143    -0.205963
   13      H      -2.205111     0.907660     1.241600
   14      C      -1.194614    -1.447765     0.126418
   15      H      -0.341734    -2.066012    -0.184186
   16      H      -2.109527    -1.886552    -0.294722
   17      H      -1.269417    -1.491532     1.222022
 ----------------------------------------------------

 Frequency:     -1912.34                  81.63                 111.32
 Force Cnst:      2.4706                 0.0103                 0.0198
 Red. Mass:       1.1466                 2.6248                 2.7114
 IR Intens:        0.000                  0.000                  0.000
 Frequency:       184.31                 224.69                 260.74
 Force Cnst:      0.0447                 0.0306                 0.0469
 Red. Mass:       2.2349                 1.0287                 1.1708
 IR Intens:        0.000                  0.000                  0.000
 Frequency:       279.97                 311.35                 390.59
 Force Cnst:      0.0597                 0.1326                 0.1467
 Red. Mass:       1.2924                 2.3218                 1.6319
 IR Intens:        0.000                  0.000                  0.000
 Frequency:       427.83                 441.93                 643.69
 Force Cnst:      0.3134                 0.2720                 0.4081
 Red. Mass:       2.9064                 2.3641                 1.6716
 IR Intens:        0.000                  0.000                  0.000
 Frequency:       758.61                 850.51                 912.36
 Force Cnst:      0.4823                 0.8778                 0.5634
 Red. Mass:       1.4225                 2.0595                 1.1488
 IR Intens:        0.000                  0.000                  0.000
 Frequency:       937.81                 958.39                1073.35
 Force Cnst:      0.8447                 0.8412                 2.1298
 Red. Mass:       1.6302                 1.5544                 3.1377
 IR Intens:        0.000                  0.000                  0.000
 Frequency:      1106.35                1133.78                1181.19
 Force Cnst:      1.1832                 1.4148                 1.3364
 Red. Mass:       1.6406                 1.8681                 1.6258
 IR Intens:        0.000                  0.000                  0.000
 Frequency:      1202.81                1217.11                1274.36
 Force Cnst:      1.5665                 1.3299                 1.1776
 Red. Mass:       1.8377                 1.5237                 1.2307
 IR Intens:        0.000                  0.000                  0.000
 Frequency:      1305.91                1321.31                1357.98
 Force Cnst:      1.3215                 1.4047                 1.4613
 Red. Mass:       1.3152                 1.3656                 1.3450
 IR Intens:        0.000                  0.000                  0.000
 Frequency:      1377.02                1395.86                1434.09
 Force Cnst:      1.4389                 1.4653                 2.7341
 Red. Mass:       1.2880                 1.2764                 2.2564
 IR Intens:        0.000                  0.000                  0.000
 Frequency:      1463.41                1468.24                1479.44
 Force Cnst:      1.3191                 1.3394                 1.3523
 Red. Mass:       1.0454                 1.0546                 1.0487
 IR Intens:        0.000                  0.000                  0.000
 Frequency:      1485.69                2151.14                2955.25
 Force Cnst:      1.4149                 2.9085                 5.5681
 Red. Mass:       1.0880                 1.0668                 1.0821
 IR Intens:        0.000                  0.000                  0.000
 Frequency:      2965.43                2975.93                3036.03
 Force Cnst:      5.3629                 5.4079                 5.9845
 Red. Mass:       1.0351                 1.0364                 1.1019
 IR Intens:        0.000                  0.000                  0.000
 Frequency:      3042.39                3043.99                3058.15
 Force Cnst:      6.0109                 6.0070                 6.0750
 Red. Mass:       1.1022                 1.1003                 1.1025
 IR Intens:        0.000                  0.000                  0.000
 Frequency:      3106.89                3120.44                3770.54
 Force Cnst:      6.1964                 6.2312                 8.9264
 Red. Mass:       1.0895                 1.0862                 1.0657
 IR Intens:        0.000                  0.000                  0.000

 STANDARD THERMODYNAMIC QUANTITIES AT   298.15 K  AND     1.00 ATM

   This Molecule has  1 Imaginary Frequencies
   Zero point vibrational energy:       90.463 kcal/mol

   Atom    1 Element C  Has Mass   12.00000
   Atom    2 Element H  Has Mass    1.00783
   Atom    3 Element C  Has Mass   12.00000
   Atom    4 Element H  Has Mass    1.00783
   Atom    5 Element H  Has Mass    1.00783
   Atom    6 Element C  Has Mass   12.00000
   Atom    7 Element H  Has Mass    1.00783
   Atom    8 Element O  Has Mass   15.99491
   Atom    9 Element H  Has Mass    1.00783
   Atom   10 Element C  Has Mass   12.00000
   Atom   11 Element H  Has Mass    1.00783
   Atom   12 Element H  Has Mass    1.00783
   Atom   13 Element H  Has Mass    1.00783
   Atom   14 Element C  Has Mass   12.00000
   Atom   15 Element H  Has Mass    1.00783
   Atom   16 Element H  Has Mass    1.00783
   Atom   17 Element H  Has Mass    1.00783
   Molecular Mass:    87.081040 amu
   Principal axes and moments of inertia in atomic units:
                             1           2           3
    Eigenvalues --      259.52488  1027.14421  1169.07961
          X               0.99999    -0.00256    -0.00224
          Y               0.00258     0.99997     0.00698
          Z               0.00223    -0.00699     0.99997
   Rotational Symmetry Number is   1
   The Molecule is an Asymmetric Top
   Translational Enthalpy:        0.889 kcal/mol
   Rotational Enthalpy:           0.889 kcal/mol
   Vibrational Enthalpy:         93.873 kcal/mol
   gas constant (RT):             0.592 kcal/mol
   Translational Entropy:        39.306  cal/mol.K
   Rotational Entropy:           27.235  cal/mol.K
   Vibrational Entropy:          20.209  cal/mol.K

   Total Enthalpy:               96.243 kcal/mol
   Total Entropy:                86.749  cal/mol.K

 Total job time:  48929.76s(wall), 48616.10s(cpu)
        *  Thank you very much for using Q-Chem.  Have a nice day.  *
