User input:
--------------------------------------------------------------
$rem
XC_GRID 000075000434
JOBTYPE ts
EXCHANGE M08SO
BASIS gen
GUI=2
UNRESTRICTED TRUE
CORRELATION NONE
$end

$comment
c5h11o-2
$end

$molecule
0 2
C
H  1 1.427305
C  2 1.403886 1 103.596149
H  3 1.091538 2 104.859644 1 106.758150 0
O  3 1.383734 2 121.334078 1 -121.366340 0
H  5 0.959564 3 109.618826 2 -79.365380 0
C  1 1.503480 2 111.171042 3 122.274941 0
H  7 1.089354 1 111.367760 2 81.943317 0
H  7 1.091010 1 111.178410 2 -39.008188 0
H  7 1.096726 1 110.748581 2 -158.180768 0
C  1 1.504205 2 110.189786 3 -106.708438 0
H  11 1.089918 1 111.495598 2 -77.820740 0
H  11 1.091212 1 111.720473 2 43.435860 0
H  11 1.097085 1 110.636188 2 162.644058 0
C  3 1.515526 2 81.460598 1 -7.632971 0
H  15 1.089076 3 115.820754 2 127.698651 0
H  15 1.089378 3 109.685645 2 -108.426575 0
$end

$basis
H  0
S  3 1.00
3.386500000000E+01 2.549380000000E-02
5.094790000000E+00 1.903730000000E-01
1.158790000000E+00 8.521610000000E-01
S  1 1.00
3.258400000000E-01 1.000000000000E+00
S  1 1.00
1.027410000000E-01 1.000000000000E+00
S  1 1.00
3.600000000000E-02 1.000000000000E+00
P  1 1.00
1.500000000000E+00 1.000000000000E+00
P  1 1.00
3.750000000000E-01 1.000000000000E+00
****
C 0
S  6 1.00
4.563240000000E+03 1.966650000000E-03
6.820240000000E+02 1.523060000000E-02
1.549730000000E+02 7.612690000000E-02
4.445530000000E+01 2.608010000000E-01
1.302900000000E+01 6.164620000000E-01
1.827730000000E+00 2.210060000000E-01
S  3 1.00
2.096420000000E+01 1.146600000000E-01
4.803310000000E+00 9.199990000000E-01
1.459330000000E+00 -3.030680000000E-03
S  1 1.00
4.834560000000E-01 1.000000000000E+00
S  1 1.00
1.455850000000E-01 1.000000000000E+00
S  1 1.00
4.380000000000E-02 1.000000000000E+00
P  3 1.00
2.096420000000E+01 4.024870000000E-02
4.803310000000E+00 2.375940000000E-01
1.459330000000E+00 8.158540000000E-01
P  1 1.00
4.834560000000E-01 1.000000000000E+00
P  1 1.00
1.455850000000E-01 1.000000000000E+00
P  1 1.00
4.380000000000E-02 1.000000000000E+00
D  1 1.00
1.252000000000E+00 1.000000000000E+00
D  1 1.00
3.130000000000E-01 1.000000000000E+00
F  1 1.00
8.000000000000E-01 1.000000000000E+00
****
O  0
S  6 1.00
8.588500000000E+03 1.895150000000E-03
1.297230000000E+03 1.438590000000E-02
2.992960000000E+02 7.073200000000E-02
8.737710000000E+01 2.400010000000E-01
2.567890000000E+01 5.947970000000E-01
3.740040000000E+00 2.808020000000E-01
S  3 1.00
4.211750000000E+01 1.138890000000E-01
9.628370000000E+00 9.208110000000E-01
2.853320000000E+00 -3.274470000000E-03
S  1 1.00
9.056610000000E-01 1.000000000000E+00
S  1 1.00
2.556110000000E-01 1.000000000000E+00
S  1 1.00
8.450000000000E-02 1.000000000000E+00
P  3 1.00
4.211750000000E+01 3.651140000000E-02
9.628370000000E+00 2.371530000000E-01
2.853320000000E+00 8.197020000000E-01
P  1 1.00
9.056610000000E-01 1.000000000000E+00
P  1 1.00
2.556110000000E-01 1.000000000000E+00
P  1 1.00
8.450000000000E-02 1.000000000000E+00
D  1 1.00
2.584000000000E+00 1.000000000000E+00
D  1 1.00
6.460000000000E-01 1.000000000000E+00
F  1 1.00
1.400000000000E+00 1.000000000000E+00
****
$end

--------------------------------------------------------------

   21    -272.1426200300      2.62E-09 Convergence criterion met
 Total energy in the final basis set = -272.1426200300
   12    -272.1424205591      5.23E-09 Convergence criterion met
 Total energy in the final basis set = -272.1424205591
   12    -272.1424662895      5.98E-09 Convergence criterion met
 Total energy in the final basis set = -272.1424662895
   13    -272.1430031962      5.14E-09 Convergence criterion met
 Total energy in the final basis set = -272.1430031962
   12    -272.1429969817      9.46E-09 Convergence criterion met
 Total energy in the final basis set = -272.1429969817
   12    -272.1432510964      6.25E-09 Convergence criterion met
 Total energy in the final basis set = -272.1432510964
   13    -272.1429473614      4.10E-09 Convergence criterion met
 Total energy in the final basis set = -272.1429473614
   12    -272.1429850487      4.69E-09 Convergence criterion met
 **  OPTIMIZATION CONVERGED  **
 Total job time:  15629.27s(wall), 15322.34s(cpu)
        *  Thank you very much for using Q-Chem.  Have a nice day.  *

User input:
--------------------------------------------------------------

$molecule
READ
$end

$rem
JOBTYPE Freq
XC_GRID 000075000434
EXCHANGE M08SO
BASIS gen
GUI=2
SCF_GUESS READ
$end

$basis
H  0
S  3 1.00
3.386500000000E+01 2.549380000000E-02
5.094790000000E+00 1.903730000000E-01
1.158790000000E+00 8.521610000000E-01
S  1 1.00
3.258400000000E-01 1.000000000000E+00
S  1 1.00
1.027410000000E-01 1.000000000000E+00
S  1 1.00
3.600000000000E-02 1.000000000000E+00
P  1 1.00
1.500000000000E+00 1.000000000000E+00
P  1 1.00
3.750000000000E-01 1.000000000000E+00
****
C 0
S  6 1.00
4.563240000000E+03 1.966650000000E-03
6.820240000000E+02 1.523060000000E-02
1.549730000000E+02 7.612690000000E-02
4.445530000000E+01 2.608010000000E-01
1.302900000000E+01 6.164620000000E-01
1.827730000000E+00 2.210060000000E-01
S  3 1.00
2.096420000000E+01 1.146600000000E-01
4.803310000000E+00 9.199990000000E-01
1.459330000000E+00 -3.030680000000E-03
S  1 1.00
4.834560000000E-01 1.000000000000E+00
S  1 1.00
1.455850000000E-01 1.000000000000E+00
S  1 1.00
4.380000000000E-02 1.000000000000E+00
P  3 1.00
2.096420000000E+01 4.024870000000E-02
4.803310000000E+00 2.375940000000E-01
1.459330000000E+00 8.158540000000E-01
P  1 1.00
4.834560000000E-01 1.000000000000E+00
P  1 1.00
1.455850000000E-01 1.000000000000E+00
P  1 1.00
4.380000000000E-02 1.000000000000E+00
D  1 1.00
1.252000000000E+00 1.000000000000E+00
D  1 1.00
3.130000000000E-01 1.000000000000E+00
F  1 1.00
8.000000000000E-01 1.000000000000E+00
****
O  0
S  6 1.00
8.588500000000E+03 1.895150000000E-03
1.297230000000E+03 1.438590000000E-02
2.992960000000E+02 7.073200000000E-02
8.737710000000E+01 2.400010000000E-01
2.567890000000E+01 5.947970000000E-01
3.740040000000E+00 2.808020000000E-01
S  3 1.00
4.211750000000E+01 1.138890000000E-01
9.628370000000E+00 9.208110000000E-01
2.853320000000E+00 -3.274470000000E-03
S  1 1.00
9.056610000000E-01 1.000000000000E+00
S  1 1.00
2.556110000000E-01 1.000000000000E+00
S  1 1.00
8.450000000000E-02 1.000000000000E+00
P  3 1.00
4.211750000000E+01 3.651140000000E-02
9.628370000000E+00 2.371530000000E-01
2.853320000000E+00 8.197020000000E-01
P  1 1.00
9.056610000000E-01 1.000000000000E+00
P  1 1.00
2.556110000000E-01 1.000000000000E+00
P  1 1.00
8.450000000000E-02 1.000000000000E+00
D  1 1.00
2.584000000000E+00 1.000000000000E+00
D  1 1.00
6.460000000000E-01 1.000000000000E+00
F  1 1.00
1.400000000000E+00 1.000000000000E+00
****
--------------------------------------------------------------

 Total energy in the final basis set = -272.1432952344
    7    -272.1432950471      6.24E-09 Convergence criterion met
 Total energy in the final basis set = -272.1432950471
    7    -272.1432951997      5.61E-09 Convergence criterion met
 Total energy in the final basis set = -272.1432951997
    7    -272.1432950936      7.76E-09 Convergence criterion met
 Total energy in the final basis set = -272.1432950936
    7    -272.1432952032      7.55E-09 Convergence criterion met
 Total energy in the final basis set = -272.1432952032
    7    -272.1432948747      9.79E-09 Convergence criterion met
 Total energy in the final basis set = -272.1432948747
    8    -272.1432948694      2.14E-09 Convergence criterion met
 Total energy in the final basis set = -272.1432948694
    8    -272.1432948534      2.40E-09 Convergence criterion met
 Total energy in the final basis set = -272.1432948534

                    Orbital Energies (a.u.)
 --------------------------------------------------------------

 Alpha MOs
 -- Occupied --
-19.584 -10.553 -10.509 -10.490 -10.486 -10.482  -1.158  -0.921
 -0.824  -0.779  -0.698  -0.639  -0.611  -0.556  -0.514  -0.505
 -0.489  -0.479  -0.456  -0.436  -0.422  -0.403  -0.382  -0.350
 -0.205

 Beta MOs
 -- Occupied --
-19.581 -10.541 -10.497 -10.490 -10.486 -10.482  -1.151  -0.914
 -0.818  -0.778  -0.691  -0.625  -0.604  -0.542  -0.506  -0.502
 -0.480  -0.466  -0.450  -0.434  -0.414  -0.404  -0.381  -0.331

          Ground-State Mulliken Net Atomic Charges

     Atom                 Charge (a.u.)    Spin (a.u.)
  --------------------------------------------------------
      1 C                     0.524288       0.534241
      2 H                     0.126919      -0.109156
      3 C                    -0.353416       0.529304
      4 H                     0.209462       0.016057
      5 O                    -0.289848       0.036737
      6 H                     0.295179      -0.003139
      7 C                    -0.834075      -0.032556
      8 H                     0.197614       0.000122
      9 H                     0.225057       0.006361
     10 H                     0.199451       0.036683
     11 C                    -0.765066      -0.018449
     12 H                     0.189039      -0.000090
     13 H                     0.183216       0.006629
     14 H                     0.189120       0.041662
     15 C                    -0.606740      -0.041420
     16 H                     0.259202      -0.000085
     17 H                     0.250599      -0.002903
  --------------------------------------------------------
  Sum of atomic charges =     0.000000

                    Cartesian Multipole Moments
 -----------------------------------------------------------------
    Charge (ESU x 10^10)
                 0.0000
    Dipole Moment (Debye)
         X       0.1528      Y      -0.6511      Z      -0.9059
       Tot       1.1260
    Quadrupole Moments (Debye-Ang)
        XX     -38.5987     XY      -0.7879     YY     -40.0814
        XZ      -4.1683     YZ      -0.6183     ZZ     -39.7581
    Octapole Moments (Debye-Ang^2)
       XXX      21.9993    XXY       1.2540    XYY       4.3594
       YYY      -1.6553    XXZ     -14.6351    XYZ      -0.8030
       YYZ      -1.1378    XZZ       6.6508    YZZ       2.1727
       ZZZ       0.2090
    Hexadecapole Moments (Debye-Ang^3)
      XXXX    -579.3581   XXXY       6.7632   XXYY    -146.6292
      XYYY       4.6214   YYYY    -263.4428   XXXZ     -43.1403
      XXYZ      -6.1843   XYYZ      -2.2021   YYYZ      -1.3304
      XXZZ    -107.4773   XYZZ       2.0891   YYZZ     -63.8226

       Standard Nuclear Orientation (Angstroms)
    I     Atom         X            Y            Z
 ----------------------------------------------------
    1      C      -0.806046     0.028232    -0.073692
    2      H       0.204565    -0.220737    -1.057771
    3      C       1.321714    -0.647903    -0.282013
    4      H       1.724553    -1.615832    -0.608193
    5      O       2.270327     0.352723    -0.111905
    6      H       2.826904     0.419118    -0.894798
    7      C      -0.905773     1.527388     0.076239
    8      H      -1.491131     1.975062    -0.737338
    9      H       0.092114     1.986835     0.085789
   10      H      -1.400041     1.790412     1.028310
   11      C      -2.094716    -0.720066    -0.305850
   12      H      -2.680150    -0.265180    -1.115181
   13      H      -1.910560    -1.772103    -0.562402
   14      H      -2.722380    -0.709107     0.603448
   15      C       0.260159    -0.638117     0.808397
   16      H      -0.022198    -1.649327     1.125130
   17      H       0.563679    -0.058121     1.689755
 ----------------------------------------------------

 Frequency:     -2258.38                  69.26                 139.96
 Force Cnst:      3.3326                 0.0091                 0.0383
 Red. Mass:       1.1090                 3.2159                 3.3160
 IR Intens:        0.000                  0.000                  0.000
 Frequency:       200.05                 238.67                 287.80
 Force Cnst:      0.0253                 0.0355                 0.0895
 Red. Mass:       1.0710                 1.0592                 1.8342
 IR Intens:        0.000                  0.000                  0.000
 Frequency:       292.42                 312.47                 358.14
 Force Cnst:      0.0892                 0.0928                 0.1452
 Red. Mass:       1.7702                 1.6132                 1.9208
 IR Intens:        0.000                  0.000                  0.000
 Frequency:       423.31                 578.33                 786.69
 Force Cnst:      0.2065                 0.5912                 0.8643
 Red. Mass:       1.9560                 3.0000                 2.3702
 IR Intens:        0.000                  0.000                  0.000
 Frequency:       846.57                 937.96                 951.87
 Force Cnst:      0.7680                 0.6707                 0.7110
 Red. Mass:       1.8188                 1.2940                 1.3319
 IR Intens:        0.000                  0.000                  0.000
 Frequency:       967.19                 974.24                 996.55
 Force Cnst:      1.1419                 0.8993                 0.9422
 Red. Mass:       2.0718                 1.6082                 1.6102
 IR Intens:        0.000                  0.000                  0.000
 Frequency:      1060.20                1109.42                1170.31
 Force Cnst:      0.9256                 1.2773                 1.2762
 Red. Mass:       1.3976                 1.7613                 1.5815
 IR Intens:        0.000                  0.000                  0.000
 Frequency:      1223.99                1227.70                1262.18
 Force Cnst:      1.2942                 1.4167                 1.6722
 Red. Mass:       1.4662                 1.5953                 1.7815
 IR Intens:        0.000                  0.000                  0.000
 Frequency:      1293.62                1336.05                1383.38
 Force Cnst:      2.0576                 1.4703                 1.6324
 Red. Mass:       2.0869                 1.3980                 1.4477
 IR Intens:        0.000                  0.000                  0.000
 Frequency:      1394.25                1396.70                1448.88
 Force Cnst:      1.6463                 1.6111                 1.3901
 Red. Mass:       1.4374                 1.4018                 1.1239
 IR Intens:        0.000                  0.000                  0.000
 Frequency:      1457.42                1463.21                1472.92
 Force Cnst:      1.3181                 1.3414                 1.3462
 Red. Mass:       1.0532                 1.0634                 1.0532
 IR Intens:        0.000                  0.000                  0.000
 Frequency:      1477.05                1737.79                2928.20
 Force Cnst:      1.3740                 1.8592                 5.3069
 Red. Mass:       1.0689                 1.0449                 1.0505
 IR Intens:        0.000                  0.000                  0.000
 Frequency:      2936.69                2998.33                3006.15
 Force Cnst:      5.3270                 5.6266                 5.7647
 Red. Mass:       1.0484                 1.0623                 1.0827
 IR Intens:        0.000                  0.000                  0.000
 Frequency:      3011.93                3012.17                3044.86
 Force Cnst:      5.7932                 5.8034                 6.0181
 Red. Mass:       1.0839                 1.0856                 1.1017
 IR Intens:        0.000                  0.000                  0.000
 Frequency:      3049.59                3055.26                3882.88
 Force Cnst:      6.0417                 6.0851                 9.4720
 Red. Mass:       1.1026                 1.1064                 1.0663
 IR Intens:        0.000                  0.000                  0.000

 STANDARD THERMODYNAMIC QUANTITIES AT   298.15 K  AND     1.00 ATM

   This Molecule has  1 Imaginary Frequencies
   Zero point vibrational energy:       90.353 kcal/mol

   Atom    1 Element C  Has Mass   12.00000
   Atom    2 Element H  Has Mass    1.00783
   Atom    3 Element C  Has Mass   12.00000
   Atom    4 Element H  Has Mass    1.00783
   Atom    5 Element O  Has Mass   15.99491
   Atom    6 Element H  Has Mass    1.00783
   Atom    7 Element C  Has Mass   12.00000
   Atom    8 Element H  Has Mass    1.00783
   Atom    9 Element H  Has Mass    1.00783
   Atom   10 Element H  Has Mass    1.00783
   Atom   11 Element C  Has Mass   12.00000
   Atom   12 Element H  Has Mass    1.00783
   Atom   13 Element H  Has Mass    1.00783
   Atom   14 Element H  Has Mass    1.00783
   Atom   15 Element C  Has Mass   12.00000
   Atom   16 Element H  Has Mass    1.00783
   Atom   17 Element H  Has Mass    1.00783
   Molecular Mass:    87.081040 amu
   Principal axes and moments of inertia in atomic units:
                             1           2           3
    Eigenvalues --      310.29068   816.19207   981.72652
          X               0.99997    -0.00609    -0.00402
          Y               0.00612     0.99996     0.00665
          Z               0.00398    -0.00668     0.99997
   Rotational Symmetry Number is   1
   The Molecule is an Asymmetric Top
   Translational Enthalpy:        0.889 kcal/mol
   Rotational Enthalpy:           0.889 kcal/mol
   Vibrational Enthalpy:         93.585 kcal/mol
   gas constant (RT):             0.592 kcal/mol
   Translational Entropy:        39.306  cal/mol.K
   Rotational Entropy:           27.010  cal/mol.K
   Vibrational Entropy:          19.116  cal/mol.K

   Total Enthalpy:               95.955 kcal/mol
   Total Entropy:                85.432  cal/mol.K

 Total job time:  53504.29s(wall), 52896.93s(cpu)
        *  Thank you very much for using Q-Chem.  Have a nice day.  *
