User input:
--------------------------------------------------------------
$rem
XC_GRID 000075000434
JOBTYPE ts
EXCHANGE M08SO
BASIS gen
GUI=2
UNRESTRICTED TRUE
CORRELATION NONE
$end

$comment
c5h11o-2
$end

$molecule
0 2
C
H  1 1.094228
C  1 1.515384 2 108.415122
H  3 1.084254 1 118.743288 2 -29.571784 0
H  3 1.089313 1 114.698879 2 -168.205421 0
H  3 1.425343 1 92.023701 2 85.863942 0
C  6 1.339708 3 130.768532 1 10.291818 0
H  7 1.088902 6 103.609094 3 -102.544010 0
O  7 1.380846 6 116.720005 3 137.930598 0
H  9 0.960367 7 109.334879 6 -68.839014 0
C  7 1.512907 6 93.109386 3 13.715520 0
H  11 1.091764 7 114.102298 6 -155.128754 0
H  11 1.097090 7 108.616317 6 84.941923 0
C  1 1.524592 2 108.839037 3 -125.265517 0
H  14 1.089178 1 111.273564 2 58.834218 0
H  14 1.091237 1 111.179705 2 -61.767754 0
H  14 1.091727 1 110.133044 2 178.413384 0
$end

$basis
H  0
S  3 1.00
3.386500000000E+01 2.549380000000E-02
5.094790000000E+00 1.903730000000E-01
1.158790000000E+00 8.521610000000E-01
S  1 1.00
3.258400000000E-01 1.000000000000E+00
S  1 1.00
1.027410000000E-01 1.000000000000E+00
S  1 1.00
3.600000000000E-02 1.000000000000E+00
P  1 1.00
1.500000000000E+00 1.000000000000E+00
P  1 1.00
3.750000000000E-01 1.000000000000E+00
****
C 0
S  6 1.00
4.563240000000E+03 1.966650000000E-03
6.820240000000E+02 1.523060000000E-02
1.549730000000E+02 7.612690000000E-02
4.445530000000E+01 2.608010000000E-01
1.302900000000E+01 6.164620000000E-01
1.827730000000E+00 2.210060000000E-01
S  3 1.00
2.096420000000E+01 1.146600000000E-01
4.803310000000E+00 9.199990000000E-01
1.459330000000E+00 -3.030680000000E-03
S  1 1.00
4.834560000000E-01 1.000000000000E+00
S  1 1.00
1.455850000000E-01 1.000000000000E+00
S  1 1.00
4.380000000000E-02 1.000000000000E+00
P  3 1.00
2.096420000000E+01 4.024870000000E-02
4.803310000000E+00 2.375940000000E-01
1.459330000000E+00 8.158540000000E-01
P  1 1.00
4.834560000000E-01 1.000000000000E+00
P  1 1.00
1.455850000000E-01 1.000000000000E+00
P  1 1.00
4.380000000000E-02 1.000000000000E+00
D  1 1.00
1.252000000000E+00 1.000000000000E+00
D  1 1.00
3.130000000000E-01 1.000000000000E+00
F  1 1.00
8.000000000000E-01 1.000000000000E+00
****
O  0
S  6 1.00
8.588500000000E+03 1.895150000000E-03
1.297230000000E+03 1.438590000000E-02
2.992960000000E+02 7.073200000000E-02
8.737710000000E+01 2.400010000000E-01
2.567890000000E+01 5.947970000000E-01
3.740040000000E+00 2.808020000000E-01
S  3 1.00
4.211750000000E+01 1.138890000000E-01
9.628370000000E+00 9.208110000000E-01
2.853320000000E+00 -3.274470000000E-03
S  1 1.00
9.056610000000E-01 1.000000000000E+00
S  1 1.00
2.556110000000E-01 1.000000000000E+00
S  1 1.00
8.450000000000E-02 1.000000000000E+00
P  3 1.00
4.211750000000E+01 3.651140000000E-02
9.628370000000E+00 2.371530000000E-01
2.853320000000E+00 8.197020000000E-01
P  1 1.00
9.056610000000E-01 1.000000000000E+00
P  1 1.00
2.556110000000E-01 1.000000000000E+00
P  1 1.00
8.450000000000E-02 1.000000000000E+00
D  1 1.00
2.584000000000E+00 1.000000000000E+00
D  1 1.00
6.460000000000E-01 1.000000000000E+00
F  1 1.00
1.400000000000E+00 1.000000000000E+00
****
$end

--------------------------------------------------------------

   20    -272.1653277077      6.85E-09 Convergence criterion met
 Total energy in the final basis set = -272.1653277077
   11    -272.1651600288      4.85E-09 Convergence criterion met
 Total energy in the final basis set = -272.1651600288
   11    -272.1648782719      8.84E-09 Convergence criterion met
 Total energy in the final basis set = -272.1648782719
   12    -272.1644958809      6.23E-09 Convergence criterion met
 Total energy in the final basis set = -272.1644958809
   12    -272.1640760837      7.64E-09 Convergence criterion met
 Total energy in the final basis set = -272.1640760837
   12    -272.1638247497      9.07E-09 Convergence criterion met
 Total energy in the final basis set = -272.1638247497
   13    -272.1651115318      7.35E-09 Convergence criterion met
 Total energy in the final basis set = -272.1651115318
   13    -272.1647284886      2.62E-09 Convergence criterion met
 **  OPTIMIZATION CONVERGED  **
 Total job time:  13789.38s(wall), 13538.56s(cpu)
        *  Thank you very much for using Q-Chem.  Have a nice day.  *

User input:
--------------------------------------------------------------

$molecule
READ
$end

$rem
JOBTYPE Freq
XC_GRID 000075000434
EXCHANGE M08SO
BASIS gen
GUI=2
SCF_GUESS READ
$end

$basis
H  0
S  3 1.00
3.386500000000E+01 2.549380000000E-02
5.094790000000E+00 1.903730000000E-01
1.158790000000E+00 8.521610000000E-01
S  1 1.00
3.258400000000E-01 1.000000000000E+00
S  1 1.00
1.027410000000E-01 1.000000000000E+00
S  1 1.00
3.600000000000E-02 1.000000000000E+00
P  1 1.00
1.500000000000E+00 1.000000000000E+00
P  1 1.00
3.750000000000E-01 1.000000000000E+00
****
C 0
S  6 1.00
4.563240000000E+03 1.966650000000E-03
6.820240000000E+02 1.523060000000E-02
1.549730000000E+02 7.612690000000E-02
4.445530000000E+01 2.608010000000E-01
1.302900000000E+01 6.164620000000E-01
1.827730000000E+00 2.210060000000E-01
S  3 1.00
2.096420000000E+01 1.146600000000E-01
4.803310000000E+00 9.199990000000E-01
1.459330000000E+00 -3.030680000000E-03
S  1 1.00
4.834560000000E-01 1.000000000000E+00
S  1 1.00
1.455850000000E-01 1.000000000000E+00
S  1 1.00
4.380000000000E-02 1.000000000000E+00
P  3 1.00
2.096420000000E+01 4.024870000000E-02
4.803310000000E+00 2.375940000000E-01
1.459330000000E+00 8.158540000000E-01
P  1 1.00
4.834560000000E-01 1.000000000000E+00
P  1 1.00
1.455850000000E-01 1.000000000000E+00
P  1 1.00
4.380000000000E-02 1.000000000000E+00
D  1 1.00
1.252000000000E+00 1.000000000000E+00
D  1 1.00
3.130000000000E-01 1.000000000000E+00
F  1 1.00
8.000000000000E-01 1.000000000000E+00
****
O  0
S  6 1.00
8.588500000000E+03 1.895150000000E-03
1.297230000000E+03 1.438590000000E-02
2.992960000000E+02 7.073200000000E-02
8.737710000000E+01 2.400010000000E-01
2.567890000000E+01 5.947970000000E-01
3.740040000000E+00 2.808020000000E-01
S  3 1.00
4.211750000000E+01 1.138890000000E-01
9.628370000000E+00 9.208110000000E-01
2.853320000000E+00 -3.274470000000E-03
S  1 1.00
9.056610000000E-01 1.000000000000E+00
S  1 1.00
2.556110000000E-01 1.000000000000E+00
S  1 1.00
8.450000000000E-02 1.000000000000E+00
P  3 1.00
4.211750000000E+01 3.651140000000E-02
9.628370000000E+00 2.371530000000E-01
2.853320000000E+00 8.197020000000E-01
P  1 1.00
9.056610000000E-01 1.000000000000E+00
P  1 1.00
2.556110000000E-01 1.000000000000E+00
P  1 1.00
8.450000000000E-02 1.000000000000E+00
D  1 1.00
2.584000000000E+00 1.000000000000E+00
D  1 1.00
6.460000000000E-01 1.000000000000E+00
F  1 1.00
1.400000000000E+00 1.000000000000E+00
****
--------------------------------------------------------------

 Total energy in the final basis set = -272.1657718335
    7    -272.1657718216      7.00E-09 Convergence criterion met
 Total energy in the final basis set = -272.1657718216
    7    -272.1657718816      4.30E-09 Convergence criterion met
 Total energy in the final basis set = -272.1657718816
    7    -272.1657718750      3.47E-09 Convergence criterion met
 Total energy in the final basis set = -272.1657718750
    7    -272.1657718744      3.12E-09 Convergence criterion met
 Total energy in the final basis set = -272.1657718744
    7    -272.1657719020      3.86E-09 Convergence criterion met
 Total energy in the final basis set = -272.1657719020
    7    -272.1657714056      7.89E-09 Convergence criterion met
 Total energy in the final basis set = -272.1657714056
    8    -272.1657713965      3.78E-09 Convergence criterion met
 Total energy in the final basis set = -272.1657713965

                    Orbital Energies (a.u.)
 --------------------------------------------------------------

 Alpha MOs
 -- Occupied --
-19.583 -10.553 -10.506 -10.500 -10.496 -10.488  -1.159  -0.927
 -0.820  -0.770  -0.724  -0.650  -0.595  -0.563  -0.537  -0.514
 -0.480  -0.472  -0.464  -0.452  -0.406  -0.397  -0.388  -0.384
 -0.224

 Beta MOs
 -- Occupied --
-19.581 -10.542 -10.506 -10.500 -10.487 -10.485  -1.153  -0.924
 -0.815  -0.761  -0.717  -0.647  -0.584  -0.555  -0.531  -0.501
 -0.476  -0.463  -0.459  -0.449  -0.403  -0.397  -0.384  -0.356

          Ground-State Mulliken Net Atomic Charges

     Atom                 Charge (a.u.)    Spin (a.u.)
  --------------------------------------------------------
      1 C                     0.021763      -0.001582
      2 H                     0.279163       0.003375
      3 C                    -0.678459       0.650065
      4 H                     0.204908      -0.023095
      5 H                     0.226745      -0.027076
      6 H                     0.217009      -0.105928
      7 C                    -0.411439       0.500896
      8 H                     0.241624      -0.012604
      9 O                    -0.286332       0.044949
     10 H                     0.283483      -0.001786
     11 C                    -0.404295      -0.023582
     12 H                     0.212454       0.006129
     13 H                     0.222179       0.000598
     14 C                    -0.702980      -0.021704
     15 H                     0.194614       0.003028
     16 H                     0.183171       0.007365
     17 H                     0.196392       0.000953
  --------------------------------------------------------
  Sum of atomic charges =     0.000000

                    Cartesian Multipole Moments
 -----------------------------------------------------------------
    Charge (ESU x 10^10)
                 0.0000
    Dipole Moment (Debye)
         X      -1.2792      Y       0.6456      Z       0.5673
       Tot       1.5411
    Quadrupole Moments (Debye-Ang)
        XX     -46.9078     XY       0.6602     YY     -41.2851
        XZ       2.4354     YZ       0.8830     ZZ     -36.6635
    Octapole Moments (Debye-Ang^2)
       XXX      -9.1918    XXY       1.4344    XYY       2.2671
       YYY       3.2010    XXZ       4.2573    XYZ       1.7326
       YYZ      -1.1170    XZZ      10.8720    YZZ       1.3969
       ZZZ       4.2599
    Hexadecapole Moments (Debye-Ang^3)
      XXXX    -780.4892   XXXY       5.0767   XXYY    -159.1229
      XYYY       2.6172   YYYY    -222.0436   XXXZ      22.2396
      XXYZ       6.3143   XYYZ       4.5873   YYYZ       0.7744
      XXZZ    -118.7393   XYZZ       3.2771   YYZZ     -54.1386

       Standard Nuclear Orientation (Angstroms)
    I     Atom         X            Y            Z
 ----------------------------------------------------
    1      C      -1.045499    -0.039931    -0.372768
    2      H      -1.158084    -0.109248    -1.466606
    3      C      -0.691098    -1.418102     0.163116
    4      H      -1.038567    -2.298354    -0.379152
    5      H      -0.760250    -1.522446     1.251757
    6      H       0.700920    -1.208656    -0.068758
    7      C       1.381664    -0.083599    -0.398918
    8      H       1.589964    -0.211405    -1.466402
    9      O       2.573976     0.125518     0.272592
   10      H       2.395497     0.344909     1.193917
   11      C       0.205820     0.820172    -0.076474
   12      H       0.212153     1.778037    -0.614679
   13      H       0.221749     1.046793     1.005813
   14      C      -2.321263     0.560404     0.221812
   15      H      -3.200541    -0.049342    -0.018213
   16      H      -2.495855     1.577338    -0.155697
   17      H      -2.236543     0.614567     1.316675
 ----------------------------------------------------

 Frequency:     -1973.27                 112.26                 165.32
 Force Cnst:      2.5431                 0.0216                 0.0308
 Red. Mass:       1.1085                 2.9103                 1.9125
 IR Intens:        0.000                  0.000                  0.000
 Frequency:       235.89                 274.48                 321.26
 Force Cnst:      0.0346                 0.1007                 0.0701
 Red. Mass:       1.0553                 2.2679                 1.1528
 IR Intens:        0.000                  0.000                  0.000
 Frequency:       374.13                 422.61                 473.67
 Force Cnst:      0.1504                 0.2560                 0.3358
 Red. Mass:       1.8232                 2.4332                 2.5405
 IR Intens:        0.000                  0.000                  0.000
 Frequency:       526.79                 546.58                 843.60
 Force Cnst:      0.2672                 0.4839                 0.5536
 Red. Mass:       1.6343                 2.7490                 1.3203
 IR Intens:        0.000                  0.000                  0.000
 Frequency:       852.06                 908.16                 938.79
 Force Cnst:      0.9326                 0.5913                 0.6681
 Red. Mass:       2.1801                 1.2169                 1.2866
 IR Intens:        0.000                  0.000                  0.000
 Frequency:       942.55                 955.30                1027.20
 Force Cnst:      0.7402                 0.8244                 2.0566
 Red. Mass:       1.4140                 1.5333                 3.3082
 IR Intens:        0.000                  0.000                  0.000
 Frequency:      1093.01                1115.48                1153.18
 Force Cnst:      0.8790                 1.5512                 1.5233
 Red. Mass:       1.2487                 2.1159                 1.9442
 IR Intens:        0.000                  0.000                  0.000
 Frequency:      1175.20                1212.30                1240.85
 Force Cnst:      1.8533                 1.5593                 1.1964
 Red. Mass:       2.2776                 1.8008                 1.3189
 IR Intens:        0.000                  0.000                  0.000
 Frequency:      1299.82                1327.99                1346.00
 Force Cnst:      1.4569                 1.4482                 1.5809
 Red. Mass:       1.4636                 1.3937                 1.4810
 IR Intens:        0.000                  0.000                  0.000
 Frequency:      1385.02                1391.56                1405.67
 Force Cnst:      1.3861                 1.4290                 1.4830
 Red. Mass:       1.2264                 1.2525                 1.2738
 IR Intens:        0.000                  0.000                  0.000
 Frequency:      1433.74                1464.14                1473.55
 Force Cnst:      1.4333                 1.4204                 1.3566
 Red. Mass:       1.1834                 1.1246                 1.0604
 IR Intens:        0.000                  0.000                  0.000
 Frequency:      1476.77                1662.73                2930.27
 Force Cnst:      1.3456                 1.7036                 5.4114
 Red. Mass:       1.0472                 1.0459                 1.0697
 IR Intens:        0.000                  0.000                  0.000
 Frequency:      2964.74                2969.41                3019.08
 Force Cnst:      5.5496                 5.4387                 5.8717
 Red. Mass:       1.0716                 1.0469                 1.0934
 IR Intens:        0.000                  0.000                  0.000
 Frequency:      3034.28                3041.07                3051.98
 Force Cnst:      5.9717                 5.7673                 6.0419
 Red. Mass:       1.1009                 1.0585                 1.1009
 IR Intens:        0.000                  0.000                  0.000
 Frequency:      3065.17                3142.78                3874.94
 Force Cnst:      6.0180                 6.4480                 9.4307
 Red. Mass:       1.0872                 1.1080                 1.0660
 IR Intens:        0.000                  0.000                  0.000

 STANDARD THERMODYNAMIC QUANTITIES AT   298.15 K  AND     1.00 ATM

   This Molecule has  1 Imaginary Frequencies
   Zero point vibrational energy:       91.023 kcal/mol

   Atom    1 Element C  Has Mass   12.00000
   Atom    2 Element H  Has Mass    1.00783
   Atom    3 Element C  Has Mass   12.00000
   Atom    4 Element H  Has Mass    1.00783
   Atom    5 Element H  Has Mass    1.00783
   Atom    6 Element H  Has Mass    1.00783
   Atom    7 Element C  Has Mass   12.00000
   Atom    8 Element H  Has Mass    1.00783
   Atom    9 Element O  Has Mass   15.99491
   Atom   10 Element H  Has Mass    1.00783
   Atom   11 Element C  Has Mass   12.00000
   Atom   12 Element H  Has Mass    1.00783
   Atom   13 Element H  Has Mass    1.00783
   Atom   14 Element C  Has Mass   12.00000
   Atom   15 Element H  Has Mass    1.00783
   Atom   16 Element H  Has Mass    1.00783
   Atom   17 Element H  Has Mass    1.00783
   Molecular Mass:    87.081040 amu
   Principal axes and moments of inertia in atomic units:
                             1           2           3
    Eigenvalues --      247.19526   937.48485  1067.50962
          X               0.99997    -0.00624    -0.00361
          Y               0.00628     0.99990     0.01252
          Z               0.00353    -0.01254     0.99992
   Rotational Symmetry Number is   1
   The Molecule is an Asymmetric Top
   Translational Enthalpy:        0.889 kcal/mol
   Rotational Enthalpy:           0.889 kcal/mol
   Vibrational Enthalpy:         93.845 kcal/mol
   gas constant (RT):             0.592 kcal/mol
   Translational Entropy:        39.306  cal/mol.K
   Rotational Entropy:           27.005  cal/mol.K
   Vibrational Entropy:          15.637  cal/mol.K

   Total Enthalpy:               96.215 kcal/mol
   Total Entropy:                81.948  cal/mol.K

 Total job time:  52340.16s(wall), 51951.05s(cpu)
        *  Thank you very much for using Q-Chem.  Have a nice day.  *
