User input:
--------------------------------------------------------------
$rem
XC_GRID 000075000434
JOBTYPE ts
EXCHANGE M08SO
BASIS gen
GUI=2
UNRESTRICTED TRUE
CORRELATION NONE
$end

$comment
c5h11o-2
$end

$molecule
0 2
C        -0.856507   -0.082726    0.346906
C         0.234519    0.259373   -0.672926
C         1.621178    0.493494   -0.153166
O         2.268251   -0.716141    0.226644
C        -1.463198    1.313766    0.234931
C        -1.785284   -1.212220   -0.063418
H        -0.445571   -0.274497    1.340558
H         0.156463   -0.239303   -1.636341
H         2.255243    0.937270   -0.917373
H         1.733984   -1.152019    0.894733
H        -2.435773    1.392460   -0.239988
H        -0.461790    1.457447   -0.728638
H        -1.268241    2.023991    1.029593
H        -2.193489   -1.019049   -1.056808
H        -2.621120   -1.306312    0.629220
H        -1.258081   -2.165068   -0.098188
H         1.585868    1.184794    0.697061
$end

$basis
H  0
S  3 1.00
3.386500000000E+01 2.549380000000E-02
5.094790000000E+00 1.903730000000E-01
1.158790000000E+00 8.521610000000E-01
S  1 1.00
3.258400000000E-01 1.000000000000E+00
S  1 1.00
1.027410000000E-01 1.000000000000E+00
S  1 1.00
3.600000000000E-02 1.000000000000E+00
P  1 1.00
1.500000000000E+00 1.000000000000E+00
P  1 1.00
3.750000000000E-01 1.000000000000E+00
****
C 0
S  6 1.00
4.563240000000E+03 1.966650000000E-03
6.820240000000E+02 1.523060000000E-02
1.549730000000E+02 7.612690000000E-02
4.445530000000E+01 2.608010000000E-01
1.302900000000E+01 6.164620000000E-01
1.827730000000E+00 2.210060000000E-01
S  3 1.00
2.096420000000E+01 1.146600000000E-01
4.803310000000E+00 9.199990000000E-01
1.459330000000E+00 -3.030680000000E-03
S  1 1.00
4.834560000000E-01 1.000000000000E+00
S  1 1.00
1.455850000000E-01 1.000000000000E+00
S  1 1.00
4.380000000000E-02 1.000000000000E+00
P  3 1.00
2.096420000000E+01 4.024870000000E-02
4.803310000000E+00 2.375940000000E-01
1.459330000000E+00 8.158540000000E-01
P  1 1.00
4.834560000000E-01 1.000000000000E+00
P  1 1.00
1.455850000000E-01 1.000000000000E+00
P  1 1.00
4.380000000000E-02 1.000000000000E+00
D  1 1.00
1.252000000000E+00 1.000000000000E+00
D  1 1.00
3.130000000000E-01 1.000000000000E+00
F  1 1.00
8.000000000000E-01 1.000000000000E+00
****
O  0
S  6 1.00
8.588500000000E+03 1.895150000000E-03
1.297230000000E+03 1.438590000000E-02
2.992960000000E+02 7.073200000000E-02
8.737710000000E+01 2.400010000000E-01
2.567890000000E+01 5.947970000000E-01
3.740040000000E+00 2.808020000000E-01
S  3 1.00
4.211750000000E+01 1.138890000000E-01
9.628370000000E+00 9.208110000000E-01
2.853320000000E+00 -3.274470000000E-03
S  1 1.00
9.056610000000E-01 1.000000000000E+00
S  1 1.00
2.556110000000E-01 1.000000000000E+00
S  1 1.00
8.450000000000E-02 1.000000000000E+00
P  3 1.00
4.211750000000E+01 3.651140000000E-02
9.628370000000E+00 2.371530000000E-01
2.853320000000E+00 8.197020000000E-01
P  1 1.00
9.056610000000E-01 1.000000000000E+00
P  1 1.00
2.556110000000E-01 1.000000000000E+00
P  1 1.00
8.450000000000E-02 1.000000000000E+00
D  1 1.00
2.584000000000E+00 1.000000000000E+00
D  1 1.00
6.460000000000E-01 1.000000000000E+00
F  1 1.00
1.400000000000E+00 1.000000000000E+00
****
$end

--------------------------------------------------------------

   19    -272.1361788478      9.36E-09 Convergence criterion met
 Total energy in the final basis set = -272.1361788478
   11    -272.1359854511      6.08E-09 Convergence criterion met
 Total energy in the final basis set = -272.1359854511
   11    -272.1358964358      8.86E-09 Convergence criterion met
 Total energy in the final basis set = -272.1358964358
   12    -272.1358375862      8.62E-09 Convergence criterion met
 Total energy in the final basis set = -272.1358375862
   13    -272.1357607167      2.62E-09 Convergence criterion met
 Total energy in the final basis set = -272.1357607167
   13    -272.1356352543      2.82E-09 Convergence criterion met
 Total energy in the final basis set = -272.1356352543
   13    -272.1358047579      3.54E-09 Convergence criterion met
 Total energy in the final basis set = -272.1358047579
   13    -272.1359264145      2.86E-09 Convergence criterion met
 **  OPTIMIZATION CONVERGED  **
 Total job time:  42305.81s(wall), 36988.55s(cpu)
        *  Thank you very much for using Q-Chem.  Have a nice day.  *

User input:
--------------------------------------------------------------

$molecule
READ
$end

$rem
JOBTYPE Freq
XC_GRID 000075000434
EXCHANGE M08SO
BASIS gen
GUI=2
SCF_GUESS READ
$end

$basis
H  0
S  3 1.00
3.386500000000E+01 2.549380000000E-02
5.094790000000E+00 1.903730000000E-01
1.158790000000E+00 8.521610000000E-01
S  1 1.00
3.258400000000E-01 1.000000000000E+00
S  1 1.00
1.027410000000E-01 1.000000000000E+00
S  1 1.00
3.600000000000E-02 1.000000000000E+00
P  1 1.00
1.500000000000E+00 1.000000000000E+00
P  1 1.00
3.750000000000E-01 1.000000000000E+00
****
C 0
S  6 1.00
4.563240000000E+03 1.966650000000E-03
6.820240000000E+02 1.523060000000E-02
1.549730000000E+02 7.612690000000E-02
4.445530000000E+01 2.608010000000E-01
1.302900000000E+01 6.164620000000E-01
1.827730000000E+00 2.210060000000E-01
S  3 1.00
2.096420000000E+01 1.146600000000E-01
4.803310000000E+00 9.199990000000E-01
1.459330000000E+00 -3.030680000000E-03
S  1 1.00
4.834560000000E-01 1.000000000000E+00
S  1 1.00
1.455850000000E-01 1.000000000000E+00
S  1 1.00
4.380000000000E-02 1.000000000000E+00
P  3 1.00
2.096420000000E+01 4.024870000000E-02
4.803310000000E+00 2.375940000000E-01
1.459330000000E+00 8.158540000000E-01
P  1 1.00
4.834560000000E-01 1.000000000000E+00
P  1 1.00
1.455850000000E-01 1.000000000000E+00
P  1 1.00
4.380000000000E-02 1.000000000000E+00
D  1 1.00
1.252000000000E+00 1.000000000000E+00
D  1 1.00
3.130000000000E-01 1.000000000000E+00
F  1 1.00
8.000000000000E-01 1.000000000000E+00
****
O  0
S  6 1.00
8.588500000000E+03 1.895150000000E-03
1.297230000000E+03 1.438590000000E-02
2.992960000000E+02 7.073200000000E-02
8.737710000000E+01 2.400010000000E-01
2.567890000000E+01 5.947970000000E-01
3.740040000000E+00 2.808020000000E-01
S  3 1.00
4.211750000000E+01 1.138890000000E-01
9.628370000000E+00 9.208110000000E-01
2.853320000000E+00 -3.274470000000E-03
S  1 1.00
9.056610000000E-01 1.000000000000E+00
S  1 1.00
2.556110000000E-01 1.000000000000E+00
S  1 1.00
8.450000000000E-02 1.000000000000E+00
P  3 1.00
4.211750000000E+01 3.651140000000E-02
9.628370000000E+00 2.371530000000E-01
2.853320000000E+00 8.197020000000E-01
P  1 1.00
9.056610000000E-01 1.000000000000E+00
P  1 1.00
2.556110000000E-01 1.000000000000E+00
P  1 1.00
8.450000000000E-02 1.000000000000E+00
D  1 1.00
2.584000000000E+00 1.000000000000E+00
D  1 1.00
6.460000000000E-01 1.000000000000E+00
F  1 1.00
1.400000000000E+00 1.000000000000E+00
****
--------------------------------------------------------------

 Total energy in the final basis set = -272.1368145298
    7    -272.1368145460      3.43E-09 Convergence criterion met
 Total energy in the final basis set = -272.1368145460
    7    -272.1368145741      3.29E-09 Convergence criterion met
 Total energy in the final basis set = -272.1368145741
    7    -272.1368144695      4.49E-09 Convergence criterion met
 Total energy in the final basis set = -272.1368144695
    7    -272.1368143900      6.11E-09 Convergence criterion met
 Total energy in the final basis set = -272.1368143900
    8    -272.1368142341      1.98E-09 Convergence criterion met
 Total energy in the final basis set = -272.1368142341
    8    -272.1368143023      1.65E-09 Convergence criterion met
 Total energy in the final basis set = -272.1368143023
    8    -272.1368142561      2.40E-09 Convergence criterion met
 Total energy in the final basis set = -272.1368142561

                    Orbital Energies (a.u.)
 --------------------------------------------------------------

 Alpha MOs
 -- Occupied --
-19.565 -10.547 -10.514 -10.513 -10.511 -10.493  -1.136  -0.937
 -0.824  -0.783  -0.712  -0.653  -0.596  -0.567  -0.530  -0.521
 -0.505  -0.472  -0.469  -0.434  -0.416  -0.393  -0.384  -0.364
 -0.232

 Beta MOs
 -- Occupied --
-19.563 -10.547 -10.515 -10.502 -10.499 -10.493  -1.133  -0.929
 -0.821  -0.774  -0.704  -0.647  -0.594  -0.551  -0.524  -0.512
 -0.502  -0.471  -0.463  -0.428  -0.415  -0.387  -0.373  -0.361

          Ground-State Mulliken Net Atomic Charges

     Atom                 Charge (a.u.)    Spin (a.u.)
  --------------------------------------------------------
      1 C                     0.419799      -0.098950
      2 C                    -0.312181       0.565530
      3 C                    -0.660886       0.007085
      4 O                    -0.279288       0.010928
      5 C                    -0.760972       0.623164
      6 C                    -0.810437       0.009569
      7 H                     0.245242       0.005544
      8 H                     0.271193      -0.009715
      9 H                     0.198168       0.002991
     10 H                     0.262917       0.002105
     11 H                     0.213716      -0.008554
     12 H                     0.172565      -0.090444
     13 H                     0.194998      -0.017012
     14 H                     0.203264       0.001333
     15 H                     0.212403      -0.000966
     16 H                     0.197355      -0.001239
     17 H                     0.232144      -0.001369
  --------------------------------------------------------
  Sum of atomic charges =     0.000000

                    Cartesian Multipole Moments
 -----------------------------------------------------------------
    Charge (ESU x 10^10)
                 0.0000
    Dipole Moment (Debye)
         X      -1.7518      Y       0.2906      Z       0.5564
       Tot       1.8608
    Quadrupole Moments (Debye-Ang)
        XX     -46.7380     XY       2.7622     YY     -40.4421
        XZ       0.2896     YZ      -0.7553     ZZ     -38.8431
    Octapole Moments (Debye-Ang^2)
       XXX     -12.3205    XXY       6.6549    XYY       4.3244
       YYY      -6.4948    XXZ      -3.1026    XYZ      -2.1436
       YYZ       4.7709    XZZ       6.6888    YZZ      -3.7233
       ZZZ       2.8688
    Hexadecapole Moments (Debye-Ang^3)
      XXXX    -708.0317   XXXY      17.0319   XXYY    -155.7290
      XYYY      -4.2378   YYYY    -262.0477   XXXZ      -5.4185
      XXYZ      -8.3243   XYYZ       3.9928   YYYZ       0.4987
      XXZZ    -124.7264   XYZZ      -1.6185   YYZZ     -61.1748

       Standard Nuclear Orientation (Angstroms)
    I     Atom         X            Y            Z
 ----------------------------------------------------
    1      C      -0.845781    -0.111421     0.345188
    2      C       0.238712     0.185793    -0.700868
    3      C       1.616002     0.502204    -0.183822
    4      O       2.292228    -0.655459     0.302556
    5      C      -1.389451     1.316959     0.266459
    6      C      -1.849191    -1.172953    -0.093902
    7      H      -0.434260    -0.360382     1.335535
    8      H       0.178564    -0.373154    -1.640100
    9      H       2.253077     0.906386    -0.977949
   10      H       1.748758    -1.078195     0.976738
   11      H      -2.406339     1.453534    -0.107780
   12      H      -0.463829     1.392503    -0.792523
   13      H      -1.060972     2.034052     1.019302
   14      H      -2.260882    -0.912821    -1.079674
   15      H      -2.686184    -1.246914     0.611653
   16      H      -1.375260    -2.158970    -0.177559
   17      H       1.547753     1.264137     0.613579
 ----------------------------------------------------

 Frequency:     -2192.89                  65.78                 112.95
 Force Cnst:      3.1427                 0.0069                 0.0223
 Red. Mass:       1.1092                 2.6985                 2.9651
 IR Intens:        0.000                  0.000                  0.000
 Frequency:       200.53                 249.76                 269.93
 Force Cnst:      0.0343                 0.0390                 0.0632
 Red. Mass:       1.4478                 1.0624                 1.4725
 IR Intens:        0.000                  0.000                  0.000
 Frequency:       282.44                 355.78                 410.50
 Force Cnst:      0.0724                 0.1642                 0.1597
 Red. Mass:       1.5397                 2.2013                 1.6085
 IR Intens:        0.000                  0.000                  0.000
 Frequency:       481.41                 636.43                 805.95
 Force Cnst:      0.3922                 0.5033                 0.7676
 Red. Mass:       2.8726                 2.1089                 2.0057
 IR Intens:        0.000                  0.000                  0.000
 Frequency:       838.76                 896.17                 918.43
 Force Cnst:      0.6506                 0.6880                 0.7290
 Red. Mass:       1.5695                 1.4541                 1.4668
 IR Intens:        0.000                  0.000                  0.000
 Frequency:       934.99                 963.72                1048.91
 Force Cnst:      0.6772                 0.7334                 2.6721
 Red. Mass:       1.3148                 1.3402                 4.1223
 IR Intens:        0.000                  0.000                  0.000
 Frequency:      1088.12                1105.19                1112.04
 Force Cnst:      1.5888                 1.2928                 1.2321
 Red. Mass:       2.2775                 1.7964                 1.6910
 IR Intens:        0.000                  0.000                  0.000
 Frequency:      1153.71                1210.66                1250.35
 Force Cnst:      1.2089                 1.3558                 1.3791
 Red. Mass:       1.5415                 1.5700                 1.4972
 IR Intens:        0.000                  0.000                  0.000
 Frequency:      1272.00                1304.75                1338.23
 Force Cnst:      1.1843                 1.2444                 1.3246
 Red. Mass:       1.2423                 1.2406                 1.2554
 IR Intens:        0.000                  0.000                  0.000
 Frequency:      1359.07                1390.76                1401.11
 Force Cnst:      1.4222                 1.4854                 1.5736
 Red. Mass:       1.3069                 1.3034                 1.3605
 IR Intens:        0.000                  0.000                  0.000
 Frequency:      1411.89                1474.68                1476.99
 Force Cnst:      1.5546                 1.3382                 1.3494
 Red. Mass:       1.3236                 1.0444                 1.0499
 IR Intens:        0.000                  0.000                  0.000
 Frequency:      1480.16                1768.10                2943.67
 Force Cnst:      1.4078                 1.9357                 5.4668
 Red. Mass:       1.0906                 1.0510                 1.0708
 IR Intens:        0.000                  0.000                  0.000
 Frequency:      2971.20                2976.31                3043.85
 Force Cnst:      5.6286                 5.4226                 6.0041
 Red. Mass:       1.0822                 1.0390                 1.0999
 IR Intens:        0.000                  0.000                  0.000
 Frequency:      3049.04                3055.00                3058.81
 Force Cnst:      5.9769                 5.7938                 6.0772
 Red. Mass:       1.0912                 1.0536                 1.1024
 IR Intens:        0.000                  0.000                  0.000
 Frequency:      3074.15                3163.45                3882.61
 Force Cnst:      6.0650                 6.5845                 9.4707
 Red. Mass:       1.0893                 1.1167                 1.0663
 IR Intens:        0.000                  0.000                  0.000

 STANDARD THERMODYNAMIC QUANTITIES AT   298.15 K  AND     1.00 ATM

   This Molecule has  1 Imaginary Frequencies
   Zero point vibrational energy:       90.475 kcal/mol

   Atom    1 Element C  Has Mass   12.00000
   Atom    2 Element C  Has Mass   12.00000
   Atom    3 Element C  Has Mass   12.00000
   Atom    4 Element O  Has Mass   15.99491
   Atom    5 Element C  Has Mass   12.00000
   Atom    6 Element C  Has Mass   12.00000
   Atom    7 Element H  Has Mass    1.00783
   Atom    8 Element H  Has Mass    1.00783
   Atom    9 Element H  Has Mass    1.00783
   Atom   10 Element H  Has Mass    1.00783
   Atom   11 Element H  Has Mass    1.00783
   Atom   12 Element H  Has Mass    1.00783
   Atom   13 Element H  Has Mass    1.00783
   Atom   14 Element H  Has Mass    1.00783
   Atom   15 Element H  Has Mass    1.00783
   Atom   16 Element H  Has Mass    1.00783
   Atom   17 Element H  Has Mass    1.00783
   Molecular Mass:    87.081040 amu
   Principal axes and moments of inertia in atomic units:
                             1           2           3
    Eigenvalues --      311.18103   861.60773  1028.25393
          X               0.99963     0.02719     0.00109
          Y              -0.02720     0.99960     0.00822
          Z              -0.00086    -0.00824     0.99997
   Rotational Symmetry Number is   1
   The Molecule is an Asymmetric Top
   Translational Enthalpy:        0.889 kcal/mol
   Rotational Enthalpy:           0.889 kcal/mol
   Vibrational Enthalpy:         93.657 kcal/mol
   gas constant (RT):             0.592 kcal/mol
   Translational Entropy:        39.306  cal/mol.K
   Rotational Entropy:           27.113  cal/mol.K
   Vibrational Entropy:          19.098  cal/mol.K

   Total Enthalpy:               96.027 kcal/mol
   Total Entropy:                85.516  cal/mol.K

 Total job time:  63274.16s(wall), 59786.62s(cpu)
        *  Thank you very much for using Q-Chem.  Have a nice day.  *
