User input:
--------------------------------------------------------------
$rem
JOBTYPE ts
EXCHANGE M062X
BASIS gen
GUI=2
UNRESTRICTED TRUE
CORRELATION NONE
$end

$comment
c5h11o-2
$end

$molecule
0 2
C      -0.847766    -0.345183     0.285306
C       0.238489     0.347518    -0.548169
C       1.441128     0.883237     0.179032
O       2.379944    -0.133298     0.520831
C      -1.722674     0.905077     0.261382
C      -1.475353    -1.560040    -0.381767
H      -0.505912    -0.600504     1.297048
H       0.421698    -0.071590    -1.540568
H       2.000206     1.581682    -0.445573
H       1.931843    -0.795190     1.066537
H      -2.689528     0.833907    -0.235829
H      -0.734199     1.351837    -0.618740
H      -1.683248     1.561688     1.128612
H      -1.853736    -1.294688    -1.376127
H      -2.315839    -1.943353     0.205085
H      -0.746791    -2.367216    -0.505050
H       1.120244     1.420444     1.084971
$end

$basis
H  0
S  3 1.00
3.386500000000E+01 2.549380000000E-02
5.094790000000E+00 1.903730000000E-01
1.158790000000E+00 8.521610000000E-01
S  1 1.00
3.258400000000E-01 1.000000000000E+00
S  1 1.00
1.027410000000E-01 1.000000000000E+00
S  1 1.00
3.600000000000E-02 1.000000000000E+00
P  1 1.00
1.500000000000E+00 1.000000000000E+00
P  1 1.00
3.750000000000E-01 1.000000000000E+00
****
C 0
S  6 1.00
4.563240000000E+03 1.966650000000E-03
6.820240000000E+02 1.523060000000E-02
1.549730000000E+02 7.612690000000E-02
4.445530000000E+01 2.608010000000E-01
1.302900000000E+01 6.164620000000E-01
1.827730000000E+00 2.210060000000E-01
S  3 1.00
2.096420000000E+01 1.146600000000E-01
4.803310000000E+00 9.199990000000E-01
1.459330000000E+00 -3.030680000000E-03
S  1 1.00
4.834560000000E-01 1.000000000000E+00
S  1 1.00
1.455850000000E-01 1.000000000000E+00
S  1 1.00
4.380000000000E-02 1.000000000000E+00
P  3 1.00
2.096420000000E+01 4.024870000000E-02
4.803310000000E+00 2.375940000000E-01
1.459330000000E+00 8.158540000000E-01
P  1 1.00
4.834560000000E-01 1.000000000000E+00
P  1 1.00
1.455850000000E-01 1.000000000000E+00
P  1 1.00
4.380000000000E-02 1.000000000000E+00
D  1 1.00
1.252000000000E+00 1.000000000000E+00
D  1 1.00
3.130000000000E-01 1.000000000000E+00
F  1 1.00
8.000000000000E-01 1.000000000000E+00
****
O  0
S  6 1.00
8.588500000000E+03 1.895150000000E-03
1.297230000000E+03 1.438590000000E-02
2.992960000000E+02 7.073200000000E-02
8.737710000000E+01 2.400010000000E-01
2.567890000000E+01 5.947970000000E-01
3.740040000000E+00 2.808020000000E-01
S  3 1.00
4.211750000000E+01 1.138890000000E-01
9.628370000000E+00 9.208110000000E-01
2.853320000000E+00 -3.274470000000E-03
S  1 1.00
9.056610000000E-01 1.000000000000E+00
S  1 1.00
2.556110000000E-01 1.000000000000E+00
S  1 1.00
8.450000000000E-02 1.000000000000E+00
P  3 1.00
4.211750000000E+01 3.651140000000E-02
9.628370000000E+00 2.371530000000E-01
2.853320000000E+00 8.197020000000E-01
P  1 1.00
9.056610000000E-01 1.000000000000E+00
P  1 1.00
2.556110000000E-01 1.000000000000E+00
P  1 1.00
8.450000000000E-02 1.000000000000E+00
D  1 1.00
2.584000000000E+00 1.000000000000E+00
D  1 1.00
6.460000000000E-01 1.000000000000E+00
F  1 1.00
1.400000000000E+00 1.000000000000E+00
****
$end

--------------------------------------------------------------

   19    -272.2042883876      9.15E-09 Convergence criterion met
 Total energy in the final basis set = -272.2042883876
   11    -272.2039797495      4.45E-09 Convergence criterion met
 Total energy in the final basis set = -272.2039797495
   11    -272.2036897531      6.20E-09 Convergence criterion met
 Total energy in the final basis set = -272.2036897531
   11    -272.2032777546      8.90E-09 Convergence criterion met
 Total energy in the final basis set = -272.2032777546
   12    -272.2026667076      5.34E-09 Convergence criterion met
 Total energy in the final basis set = -272.2026667076
   12    -272.2018393345      6.12E-09 Convergence criterion met
 Total energy in the final basis set = -272.2018393345
   12    -272.2009700370      6.06E-09 Convergence criterion met
 Total energy in the final basis set = -272.2009700370
   12    -272.2014665129      5.34E-09 Convergence criterion met
   11    -272.2045869283      8.65E-09 Convergence criterion met
 Total energy in the final basis set = -272.2045869283
   11    -272.2046953971      7.94E-09 Convergence criterion met
 Total energy in the final basis set = -272.2046953971
   11    -272.2047107366      5.02E-09 Convergence criterion met
 Total energy in the final basis set = -272.2047107366
    8    -272.2047159014      8.65E-09 Convergence criterion met
 Total energy in the final basis set = -272.2047159014
   11    -272.2048116151      8.87E-09 Convergence criterion met
 Total energy in the final basis set = -272.2048116151
   12    -272.2047219992      3.31E-09 Convergence criterion met
 Total energy in the final basis set = -272.2047219992

       Standard Nuclear Orientation (Angstroms)
    I     Atom         X            Y            Z
 ----------------------------------------------------
    1      C      -0.856507    -0.082726     0.346906
    2      C       0.234519     0.259373    -0.672926
    3      C       1.621178     0.493494    -0.153166
    4      O       2.268251    -0.716141     0.226644
    5      C      -1.463198     1.313766     0.234931
    6      C      -1.785284    -1.212220    -0.063418
    7      H      -0.445571    -0.274497     1.340558
    8      H       0.156463    -0.239303    -1.636341
    9      H       2.255243     0.937270    -0.917373
   10      H       1.733984    -1.152019     0.894733
   11      H      -2.435773     1.392460    -0.239988
   12      H      -0.461790     1.457447    -0.728638
   13      H      -1.268241     2.023991     1.029593
   14      H      -2.193489    -1.019049    -1.056808
   15      H      -2.621120    -1.306312     0.629220
   16      H      -1.258081    -2.165068    -0.098188
   17      H       1.585868     1.184794     0.697061
 ----------------------------------------------------

    9    -272.2047226493      4.56E-09 Convergence criterion met
 Total energy in the final basis set = -272.2047226493
 Final energy is   -272.204722649282
 **  OPTIMIZATION CONVERGED  **

                    Orbital Energies (a.u.)
 --------------------------------------------------------------

 Alpha MOs
 -- Occupied --
-19.622 -10.585 -10.551 -10.546 -10.544 -10.531  -1.145  -0.937
 -0.825  -0.785  -0.711  -0.651  -0.591  -0.559  -0.523  -0.517
 -0.496  -0.467  -0.466  -0.429  -0.409  -0.385  -0.376  -0.357
 -0.223

 Beta MOs
 -- Occupied --
-19.621 -10.585 -10.551 -10.541 -10.538 -10.531  -1.142  -0.925
 -0.819  -0.773  -0.698  -0.644  -0.588  -0.543  -0.516  -0.508
 -0.492  -0.464  -0.458  -0.422  -0.407  -0.376  -0.364  -0.351

          Ground-State Mulliken Net Atomic Charges

     Atom                 Charge (a.u.)    Spin (a.u.)
  --------------------------------------------------------
      1 C                     0.249565      -0.098884
      2 C                    -0.217954       0.547426
      3 C                    -0.451313       0.003201
      4 O                    -0.267160       0.022222
      5 C                    -0.574428       0.625380
      6 C                    -0.533469       0.028333
      7 H                     0.172293       0.003050
      8 H                     0.202304      -0.022511
      9 H                     0.146038       0.001158
     10 H                     0.237264       0.000603
     11 H                     0.157849      -0.017312
     12 H                     0.131612      -0.066022
     13 H                     0.152738      -0.020737
     14 H                     0.138206      -0.001105
     15 H                     0.151661      -0.003434
     16 H                     0.136128      -0.002618
     17 H                     0.168667       0.001248
  --------------------------------------------------------
  Sum of atomic charges =     0.000000

                    Cartesian Multipole Moments
 -----------------------------------------------------------------
    Charge (ESU x 10^10)
                 0.0000
    Dipole Moment (Debye)
         X      -1.6430      Y       0.2762      Z       0.6538
       Tot       1.7897
    Quadrupole Moments (Debye-Ang)
        XX     -45.9971     XY       2.7372     YY     -40.1378
        XZ       0.6793     YZ      -0.8583     ZZ     -38.3548
    Octapole Moments (Debye-Ang^2)
       XXX      -9.6765    XXY       6.8000    XYY       4.5990
       YYY      -6.6448    XXZ      -2.3042    XYZ      -2.4467
       YYZ       5.0731    XZZ       6.2198    YZZ      -3.0273
       ZZZ       2.6701
    Hexadecapole Moments (Debye-Ang^3)
      XXXX    -692.1723   XXXY      23.1290   XXYY    -154.3195
      XYYY      -0.4684   YYYY    -265.7709   XXXZ       1.2196
      XXYZ      -7.7855   XYYZ       4.5435   YYYZ       1.4731
      XXZZ    -120.9703   XYZZ      -0.1397   YYZZ     -60.4345

 Total job time:  7452.59s(wall), 5942.97s(cpu)
        *  Thank you very much for using Q-Chem.  Have a nice day.  *
