User input:
--------------------------------------------------------------
$rem
XC_GRID 000075000434
JOBTYPE ts
EXCHANGE M08SO
BASIS gen
GUI=2
UNRESTRICTED TRUE
CORRELATION NONE
$end

$comment
c5h11o-2
$end

$molecule
read ts35MG3S.out
$end

$basis
H  0
S  3 1.00
3.386500000000E+01 2.549380000000E-02
5.094790000000E+00 1.903730000000E-01
1.158790000000E+00 8.521610000000E-01
S  1 1.00
3.258400000000E-01 1.000000000000E+00
S  1 1.00
1.027410000000E-01 1.000000000000E+00
S  1 1.00
3.600000000000E-02 1.000000000000E+00
P  1 1.00
1.500000000000E+00 1.000000000000E+00
P  1 1.00
3.750000000000E-01 1.000000000000E+00
****
C 0
S  6 1.00
4.563240000000E+03 1.966650000000E-03
6.820240000000E+02 1.523060000000E-02
1.549730000000E+02 7.612690000000E-02
4.445530000000E+01 2.608010000000E-01
1.302900000000E+01 6.164620000000E-01
1.827730000000E+00 2.210060000000E-01
S  3 1.00
2.096420000000E+01 1.146600000000E-01
4.803310000000E+00 9.199990000000E-01
1.459330000000E+00 -3.030680000000E-03
S  1 1.00
4.834560000000E-01 1.000000000000E+00
S  1 1.00
1.455850000000E-01 1.000000000000E+00
S  1 1.00
4.380000000000E-02 1.000000000000E+00
P  3 1.00
2.096420000000E+01 4.024870000000E-02
4.803310000000E+00 2.375940000000E-01
1.459330000000E+00 8.158540000000E-01
P  1 1.00
4.834560000000E-01 1.000000000000E+00
P  1 1.00
1.455850000000E-01 1.000000000000E+00
P  1 1.00
4.380000000000E-02 1.000000000000E+00
D  1 1.00
1.252000000000E+00 1.000000000000E+00
D  1 1.00
3.130000000000E-01 1.000000000000E+00
F  1 1.00
8.000000000000E-01 1.000000000000E+00
****
O  0
S  6 1.00
8.588500000000E+03 1.895150000000E-03
1.297230000000E+03 1.438590000000E-02
2.992960000000E+02 7.073200000000E-02
8.737710000000E+01 2.400010000000E-01
2.567890000000E+01 5.947970000000E-01
3.740040000000E+00 2.808020000000E-01
S  3 1.00
4.211750000000E+01 1.138890000000E-01
9.628370000000E+00 9.208110000000E-01
2.853320000000E+00 -3.274470000000E-03
S  1 1.00
9.056610000000E-01 1.000000000000E+00
S  1 1.00
2.556110000000E-01 1.000000000000E+00
S  1 1.00
8.450000000000E-02 1.000000000000E+00
P  3 1.00
4.211750000000E+01 3.651140000000E-02
9.628370000000E+00 2.371530000000E-01
2.853320000000E+00 8.197020000000E-01
P  1 1.00
9.056610000000E-01 1.000000000000E+00
P  1 1.00
2.556110000000E-01 1.000000000000E+00
P  1 1.00
8.450000000000E-02 1.000000000000E+00
D  1 1.00
2.584000000000E+00 1.000000000000E+00
D  1 1.00
6.460000000000E-01 1.000000000000E+00
F  1 1.00
1.400000000000E+00 1.000000000000E+00
****
$end

--------------------------------------------------------------

   20    -272.1365007074      8.19E-09 Convergence criterion met
 Total energy in the final basis set = -272.1365007074
   11    -272.1363260813      6.07E-09 Convergence criterion met
 Total energy in the final basis set = -272.1363260813
   11    -272.1361247846      8.29E-09 Convergence criterion met
 Total energy in the final basis set = -272.1361247846
   12    -272.1358387417      6.55E-09 Convergence criterion met
 Total energy in the final basis set = -272.1358387417
   12    -272.1353808589      8.14E-09 Convergence criterion met
 Total energy in the final basis set = -272.1353808589
   12    -272.1347184618      8.98E-09 Convergence criterion met
 Total energy in the final basis set = -272.1347184618
   12    -272.1341319340      9.60E-09 Convergence criterion met
 Total energy in the final basis set = -272.1341319340
   12    -272.1363174993      5.87E-09 Convergence criterion met
 **  OPTIMIZATION CONVERGED  **
 Total job time:  29473.84s(wall), 29299.35s(cpu)
        *  Thank you very much for using Q-Chem.  Have a nice day.  *

User input:
--------------------------------------------------------------

$molecule
READ
$end

$rem
JOBTYPE Freq
XC_GRID 000075000434
EXCHANGE M08SO
BASIS gen
GUI=2
SCF_GUESS READ
$end

$basis
H  0
S  3 1.00
3.386500000000E+01 2.549380000000E-02
5.094790000000E+00 1.903730000000E-01
1.158790000000E+00 8.521610000000E-01
S  1 1.00
3.258400000000E-01 1.000000000000E+00
S  1 1.00
1.027410000000E-01 1.000000000000E+00
S  1 1.00
3.600000000000E-02 1.000000000000E+00
P  1 1.00
1.500000000000E+00 1.000000000000E+00
P  1 1.00
3.750000000000E-01 1.000000000000E+00
****
C 0
S  6 1.00
4.563240000000E+03 1.966650000000E-03
6.820240000000E+02 1.523060000000E-02
1.549730000000E+02 7.612690000000E-02
4.445530000000E+01 2.608010000000E-01
1.302900000000E+01 6.164620000000E-01
1.827730000000E+00 2.210060000000E-01
S  3 1.00
2.096420000000E+01 1.146600000000E-01
4.803310000000E+00 9.199990000000E-01
1.459330000000E+00 -3.030680000000E-03
S  1 1.00
4.834560000000E-01 1.000000000000E+00
S  1 1.00
1.455850000000E-01 1.000000000000E+00
S  1 1.00
4.380000000000E-02 1.000000000000E+00
P  3 1.00
2.096420000000E+01 4.024870000000E-02
4.803310000000E+00 2.375940000000E-01
1.459330000000E+00 8.158540000000E-01
P  1 1.00
4.834560000000E-01 1.000000000000E+00
P  1 1.00
1.455850000000E-01 1.000000000000E+00
P  1 1.00
4.380000000000E-02 1.000000000000E+00
D  1 1.00
1.252000000000E+00 1.000000000000E+00
D  1 1.00
3.130000000000E-01 1.000000000000E+00
F  1 1.00
8.000000000000E-01 1.000000000000E+00
****
O  0
S  6 1.00
8.588500000000E+03 1.895150000000E-03
1.297230000000E+03 1.438590000000E-02
2.992960000000E+02 7.073200000000E-02
8.737710000000E+01 2.400010000000E-01
2.567890000000E+01 5.947970000000E-01
3.740040000000E+00 2.808020000000E-01
S  3 1.00
4.211750000000E+01 1.138890000000E-01
9.628370000000E+00 9.208110000000E-01
2.853320000000E+00 -3.274470000000E-03
S  1 1.00
9.056610000000E-01 1.000000000000E+00
S  1 1.00
2.556110000000E-01 1.000000000000E+00
S  1 1.00
8.450000000000E-02 1.000000000000E+00
P  3 1.00
4.211750000000E+01 3.651140000000E-02
9.628370000000E+00 2.371530000000E-01
2.853320000000E+00 8.197020000000E-01
P  1 1.00
9.056610000000E-01 1.000000000000E+00
P  1 1.00
2.556110000000E-01 1.000000000000E+00
P  1 1.00
8.450000000000E-02 1.000000000000E+00
D  1 1.00
2.584000000000E+00 1.000000000000E+00
D  1 1.00
6.460000000000E-01 1.000000000000E+00
F  1 1.00
1.400000000000E+00 1.000000000000E+00
****
--------------------------------------------------------------

 Total energy in the final basis set = -272.1368160545
    7    -272.1368160674      3.43E-09 Convergence criterion met
 Total energy in the final basis set = -272.1368160674
    7    -272.1368160469      3.29E-09 Convergence criterion met
 Total energy in the final basis set = -272.1368160469
    7    -272.1368160427      4.48E-09 Convergence criterion met
 Total energy in the final basis set = -272.1368160427
    7    -272.1368158596      6.13E-09 Convergence criterion met
 Total energy in the final basis set = -272.1368158596
    8    -272.1368158063      1.98E-09 Convergence criterion met
 Total energy in the final basis set = -272.1368158063
    8    -272.1368157926      1.65E-09 Convergence criterion met
 Total energy in the final basis set = -272.1368157926
    8    -272.1368158156      2.39E-09 Convergence criterion met
 Total energy in the final basis set = -272.1368158156

                    Orbital Energies (a.u.)
 --------------------------------------------------------------

 Alpha MOs
 -- Occupied --
-19.565 -10.547 -10.514 -10.513 -10.511 -10.493  -1.136  -0.937
 -0.824  -0.783  -0.712  -0.653  -0.596  -0.567  -0.530  -0.521
 -0.505  -0.472  -0.468  -0.434  -0.416  -0.393  -0.384  -0.364
 -0.232

 Beta MOs
 -- Occupied --
-19.563 -10.547 -10.515 -10.502 -10.499 -10.493  -1.133  -0.929
 -0.821  -0.774  -0.704  -0.647  -0.594  -0.551  -0.524  -0.512
 -0.502  -0.470  -0.463  -0.428  -0.416  -0.387  -0.373  -0.361

          Ground-State Mulliken Net Atomic Charges

     Atom                 Charge (a.u.)    Spin (a.u.)
  --------------------------------------------------------
      1 C                     0.426112      -0.099351
      2 C                    -0.316170       0.564796
      3 C                    -0.660088       0.007091
      4 O                    -0.279318       0.010863
      5 C                    -0.763489       0.624595
      6 C                    -0.811862       0.009741
      7 H                     0.244899       0.005551
      8 H                     0.271146      -0.009616
      9 H                     0.198164       0.002985
     10 H                     0.262891       0.002141
     11 H                     0.214180      -0.008495
     12 H                     0.172912      -0.090664
     13 H                     0.194924      -0.017283
     14 H                     0.203654       0.001306
     15 H                     0.212415      -0.000969
     16 H                     0.197641      -0.001263
     17 H                     0.231989      -0.001427
  --------------------------------------------------------
  Sum of atomic charges =     0.000000

                    Cartesian Multipole Moments
 -----------------------------------------------------------------
    Charge (ESU x 10^10)
                 0.0000
    Dipole Moment (Debye)
         X      -1.7476      Y       0.2958      Z       0.5595
       Tot       1.8587
    Quadrupole Moments (Debye-Ang)
        XX     -46.7238     XY       2.7685     YY     -40.4544
        XZ       0.2892     YZ      -0.7501     ZZ     -38.8380
    Octapole Moments (Debye-Ang^2)
       XXX     -12.3322    XXY       6.6532    XYY       4.2928
       YYY      -6.4313    XXZ      -3.0798    XYZ      -2.1339
       YYZ       4.7561    XZZ       6.7598    YZZ      -3.7658
       ZZZ       2.9041
    Hexadecapole Moments (Debye-Ang^3)
      XXXX    -707.9477   XXXY      16.9174   XXYY    -155.7461
      XYYY      -4.1297   YYYY    -261.6804   XXXZ      -5.5105
      XXYZ      -8.2983   XYYZ       4.0211   YYYZ       0.5284
      XXZZ    -124.7028   XYZZ      -1.6191   YYZZ     -61.1622

       Standard Nuclear Orientation (Angstroms)
    I     Atom         X            Y            Z
 ----------------------------------------------------
    1      C      -0.845765    -0.111444     0.346085
    2      C       0.238261     0.182516    -0.701154
    3      C       1.615927     0.500940    -0.186243
    4      O       2.292120    -0.655094     0.304130
    5      C      -1.386662     1.317739     0.266669
    6      C      -1.851718    -1.170349    -0.093665
    7      H      -0.434676    -0.361732     1.336282
    8      H       0.178491    -0.380637    -1.637855
    9      H       2.252284     0.901282    -0.982862
   10      H       1.750160    -1.073001     0.982481
   11      H      -2.405721     1.456718    -0.100678
   12      H      -0.465351     1.388090    -0.797366
   13      H      -1.050009     2.036091     1.014606
   14      H      -2.261353    -0.909377    -1.080098
   15      H      -2.689797    -1.241754     0.610771
   16      H      -1.380376    -2.157704    -0.176439
   17      H       1.549132     1.266363     0.607967
 ----------------------------------------------------

 Frequency:     -2192.86                  66.53                 114.10
 Force Cnst:      3.1425                 0.0071                 0.0231
 Red. Mass:       1.1092                 2.7091                 3.0101
 IR Intens:        0.000                  0.000                  0.000
 Frequency:       206.80                 250.43                 272.78
 Force Cnst:      0.0384                 0.0390                 0.0643
 Red. Mass:       1.5223                 1.0546                 1.4659
 IR Intens:        0.000                  0.000                  0.000
 Frequency:       286.10                 356.36                 410.64
 Force Cnst:      0.0712                 0.1643                 0.1595
 Red. Mass:       1.4770                 2.1962                 1.6052
 IR Intens:        0.000                  0.000                  0.000
 Frequency:       481.81                 636.79                 806.43
 Force Cnst:      0.3932                 0.5052                 0.7680
 Red. Mass:       2.8748                 2.1144                 2.0044
 IR Intens:        0.000                  0.000                  0.000
 Frequency:       839.44                 895.76                 918.57
 Force Cnst:      0.6496                 0.6829                 0.7365
 Red. Mass:       1.5647                 1.4445                 1.4815
 IR Intens:        0.000                  0.000                  0.000
 Frequency:       934.55                 964.25                1049.10
 Force Cnst:      0.6756                 0.7344                 2.6751
 Red. Mass:       1.3130                 1.3407                 4.1254
 IR Intens:        0.000                  0.000                  0.000
 Frequency:      1087.98                1105.17                1112.12
 Force Cnst:      1.5906                 1.2885                 1.2319
 Red. Mass:       2.2807                 1.7905                 1.6905
 IR Intens:        0.000                  0.000                  0.000
 Frequency:      1153.77                1210.72                1250.38
 Force Cnst:      1.2055                 1.3513                 1.3837
 Red. Mass:       1.5371                 1.5646                 1.5022
 IR Intens:        0.000                  0.000                  0.000
 Frequency:      1272.20                1304.89                1338.34
 Force Cnst:      1.1848                 1.2460                 1.3265
 Red. Mass:       1.2425                 1.2420                 1.2569
 IR Intens:        0.000                  0.000                  0.000
 Frequency:      1359.42                1390.72                1401.23
 Force Cnst:      1.4230                 1.4866                 1.5741
 Red. Mass:       1.3069                 1.3046                 1.3607
 IR Intens:        0.000                  0.000                  0.000
 Frequency:      1411.80                1474.66                1476.99
 Force Cnst:      1.5530                 1.3381                 1.3494
 Red. Mass:       1.3225                 1.0444                 1.0499
 IR Intens:        0.000                  0.000                  0.000
 Frequency:      1480.55                1767.49                2943.95
 Force Cnst:      1.4086                 1.9343                 5.4680
 Red. Mass:       1.0907                 1.0509                 1.0708
 IR Intens:        0.000                  0.000                  0.000
 Frequency:      2970.92                2976.24                3043.71
 Force Cnst:      5.6281                 5.4223                 6.0030
 Red. Mass:       1.0823                 1.0390                 1.0998
 IR Intens:        0.000                  0.000                  0.000
 Frequency:      3049.54                3055.00                3059.09
 Force Cnst:      5.9787                 5.7944                 6.0788
 Red. Mass:       1.0912                 1.0537                 1.1025
 IR Intens:        0.000                  0.000                  0.000
 Frequency:      3075.26                3163.63                3884.08
 Force Cnst:      6.0692                 6.5842                 9.4777
 Red. Mass:       1.0892                 1.1166                 1.0663
 IR Intens:        0.000                  0.000                  0.000

 STANDARD THERMODYNAMIC QUANTITIES AT   298.15 K  AND     1.00 ATM

   This Molecule has  1 Imaginary Frequencies
   Zero point vibrational energy:       90.507 kcal/mol

   Atom    1 Element C  Has Mass   12.00000
   Atom    2 Element C  Has Mass   12.00000
   Atom    3 Element C  Has Mass   12.00000
   Atom    4 Element O  Has Mass   15.99491
   Atom    5 Element C  Has Mass   12.00000
   Atom    6 Element C  Has Mass   12.00000
   Atom    7 Element H  Has Mass    1.00783
   Atom    8 Element H  Has Mass    1.00783
   Atom    9 Element H  Has Mass    1.00783
   Atom   10 Element H  Has Mass    1.00783
   Atom   11 Element H  Has Mass    1.00783
   Atom   12 Element H  Has Mass    1.00783
   Atom   13 Element H  Has Mass    1.00783
   Atom   14 Element H  Has Mass    1.00783
   Atom   15 Element H  Has Mass    1.00783
   Atom   16 Element H  Has Mass    1.00783
   Atom   17 Element H  Has Mass    1.00783
   Molecular Mass:    87.081040 amu
   Principal axes and moments of inertia in atomic units:
                             1           2           3
    Eigenvalues --      310.93132   861.84644  1027.92959
          X               0.99963     0.02720     0.00107
          Y              -0.02721     0.99960     0.00826
          Z              -0.00085    -0.00828     0.99997
   Rotational Symmetry Number is   1
   The Molecule is an Asymmetric Top
   Translational Enthalpy:        0.889 kcal/mol
   Rotational Enthalpy:           0.889 kcal/mol
   Vibrational Enthalpy:         93.673 kcal/mol
   gas constant (RT):             0.592 kcal/mol
   Translational Entropy:        39.306  cal/mol.K
   Rotational Entropy:           27.112  cal/mol.K
   Vibrational Entropy:          18.949  cal/mol.K

   Total Enthalpy:               96.043 kcal/mol
   Total Entropy:                85.367  cal/mol.K

 Total job time:  85815.50s(wall), 85318.95s(cpu)
        *  Thank you very much for using Q-Chem.  Have a nice day.  *
