User input:
--------------------------------------------------------------
$rem
XC_GRID 000075000434
JOBTYPE ts
EXCHANGE M08SO
BASIS gen
GUI=2
UNRESTRICTED TRUE
CORRELATION NONE
$end

$comment
c5h11o-2
$end

$molecule
0 2
C
H  1 1.292363
C  2 1.298891 1 70.001496
H  3 1.078832 2 111.761626 1 -111.301094 0
H  3 1.079122 2 111.810128 1 111.540314 0
C  1 1.498975 2 115.440737 3 106.459087 0
H  6 1.088462 1 112.738275 2 92.705299 0
H  6 1.089531 1 110.768455 2 -28.238662 0
H  6 1.097687 1 110.141937 2 -146.687444 0
C  1 1.499422 2 115.234386 3 -106.225788 0
H  10 1.091822 1 109.864172 2 26.040787 0
H  10 1.102499 1 108.711823 2 141.811484 0
C  10 1.522668 1 114.723140 2 -96.077989 0
H  13 1.090477 10 109.770038 1 57.836535 0
H  13 1.094549 10 110.630332 1 -60.807395 0
O  13 1.414286 10 112.101628 1 175.368725 0
H  16 0.959728 13 108.972636 10 62.523467 0
$end

$basis
H  0
S  3 1.00
3.386500000000E+01 2.549380000000E-02
5.094790000000E+00 1.903730000000E-01
1.158790000000E+00 8.521610000000E-01
S  1 1.00
3.258400000000E-01 1.000000000000E+00
S  1 1.00
1.027410000000E-01 1.000000000000E+00
S  1 1.00
3.600000000000E-02 1.000000000000E+00
P  1 1.00
1.500000000000E+00 1.000000000000E+00
P  1 1.00
3.750000000000E-01 1.000000000000E+00
****
C 0
S  6 1.00
4.563240000000E+03 1.966650000000E-03
6.820240000000E+02 1.523060000000E-02
1.549730000000E+02 7.612690000000E-02
4.445530000000E+01 2.608010000000E-01
1.302900000000E+01 6.164620000000E-01
1.827730000000E+00 2.210060000000E-01
S  3 1.00
2.096420000000E+01 1.146600000000E-01
4.803310000000E+00 9.199990000000E-01
1.459330000000E+00 -3.030680000000E-03
S  1 1.00
4.834560000000E-01 1.000000000000E+00
S  1 1.00
1.455850000000E-01 1.000000000000E+00
S  1 1.00
4.380000000000E-02 1.000000000000E+00
P  3 1.00
2.096420000000E+01 4.024870000000E-02
4.803310000000E+00 2.375940000000E-01
1.459330000000E+00 8.158540000000E-01
P  1 1.00
4.834560000000E-01 1.000000000000E+00
P  1 1.00
1.455850000000E-01 1.000000000000E+00
P  1 1.00
4.380000000000E-02 1.000000000000E+00
D  1 1.00
1.252000000000E+00 1.000000000000E+00
D  1 1.00
3.130000000000E-01 1.000000000000E+00
F  1 1.00
8.000000000000E-01 1.000000000000E+00
****
O  0
S  6 1.00
8.588500000000E+03 1.895150000000E-03
1.297230000000E+03 1.438590000000E-02
2.992960000000E+02 7.073200000000E-02
8.737710000000E+01 2.400010000000E-01
2.567890000000E+01 5.947970000000E-01
3.740040000000E+00 2.808020000000E-01
S  3 1.00
4.211750000000E+01 1.138890000000E-01
9.628370000000E+00 9.208110000000E-01
2.853320000000E+00 -3.274470000000E-03
S  1 1.00
9.056610000000E-01 1.000000000000E+00
S  1 1.00
2.556110000000E-01 1.000000000000E+00
S  1 1.00
8.450000000000E-02 1.000000000000E+00
P  3 1.00
4.211750000000E+01 3.651140000000E-02
9.628370000000E+00 2.371530000000E-01
2.853320000000E+00 8.197020000000E-01
P  1 1.00
9.056610000000E-01 1.000000000000E+00
P  1 1.00
2.556110000000E-01 1.000000000000E+00
P  1 1.00
8.450000000000E-02 1.000000000000E+00
D  1 1.00
2.584000000000E+00 1.000000000000E+00
D  1 1.00
6.460000000000E-01 1.000000000000E+00
F  1 1.00
1.400000000000E+00 1.000000000000E+00
****
$end

--------------------------------------------------------------

   20    -272.1419339693      5.28E-09 Convergence criterion met
 Total energy in the final basis set = -272.1419339693
   11    -272.1417987152      7.07E-09 Convergence criterion met
 Total energy in the final basis set = -272.1417987152
   11    -272.1415704365      7.80E-09 Convergence criterion met
 Total energy in the final basis set = -272.1415704365
   11    -272.1411873106      7.74E-09 Convergence criterion met
 Total energy in the final basis set = -272.1411873106
   11    -272.1406637690      7.77E-09 Convergence criterion met
 Total energy in the final basis set = -272.1406637690
   11    -272.1400252661      5.68E-09 Convergence criterion met
 Total energy in the final basis set = -272.1400252661
   12    -272.1393894909      4.07E-09 Convergence criterion met
 Total energy in the final basis set = -272.1393894909
   12    -272.1388223955      6.09E-09 Convergence criterion met
 **  OPTIMIZATION CONVERGED  **
 Total job time:  26591.60s(wall), 26322.75s(cpu)
        *  Thank you very much for using Q-Chem.  Have a nice day.  *

User input:
--------------------------------------------------------------

$molecule
READ
$end

$rem
JOBTYPE Freq
XC_GRID 000075000434
EXCHANGE M08SO
BASIS gen
GUI=2
SCF_GUESS READ
$end

$basis
H  0
S  3 1.00
3.386500000000E+01 2.549380000000E-02
5.094790000000E+00 1.903730000000E-01
1.158790000000E+00 8.521610000000E-01
S  1 1.00
3.258400000000E-01 1.000000000000E+00
S  1 1.00
1.027410000000E-01 1.000000000000E+00
S  1 1.00
3.600000000000E-02 1.000000000000E+00
P  1 1.00
1.500000000000E+00 1.000000000000E+00
P  1 1.00
3.750000000000E-01 1.000000000000E+00
****
C 0
S  6 1.00
4.563240000000E+03 1.966650000000E-03
6.820240000000E+02 1.523060000000E-02
1.549730000000E+02 7.612690000000E-02
4.445530000000E+01 2.608010000000E-01
1.302900000000E+01 6.164620000000E-01
1.827730000000E+00 2.210060000000E-01
S  3 1.00
2.096420000000E+01 1.146600000000E-01
4.803310000000E+00 9.199990000000E-01
1.459330000000E+00 -3.030680000000E-03
S  1 1.00
4.834560000000E-01 1.000000000000E+00
S  1 1.00
1.455850000000E-01 1.000000000000E+00
S  1 1.00
4.380000000000E-02 1.000000000000E+00
P  3 1.00
2.096420000000E+01 4.024870000000E-02
4.803310000000E+00 2.375940000000E-01
1.459330000000E+00 8.158540000000E-01
P  1 1.00
4.834560000000E-01 1.000000000000E+00
P  1 1.00
1.455850000000E-01 1.000000000000E+00
P  1 1.00
4.380000000000E-02 1.000000000000E+00
D  1 1.00
1.252000000000E+00 1.000000000000E+00
D  1 1.00
3.130000000000E-01 1.000000000000E+00
F  1 1.00
8.000000000000E-01 1.000000000000E+00
****
O  0
S  6 1.00
8.588500000000E+03 1.895150000000E-03
1.297230000000E+03 1.438590000000E-02
2.992960000000E+02 7.073200000000E-02
8.737710000000E+01 2.400010000000E-01
2.567890000000E+01 5.947970000000E-01
3.740040000000E+00 2.808020000000E-01
S  3 1.00
4.211750000000E+01 1.138890000000E-01
9.628370000000E+00 9.208110000000E-01
2.853320000000E+00 -3.274470000000E-03
S  1 1.00
9.056610000000E-01 1.000000000000E+00
S  1 1.00
2.556110000000E-01 1.000000000000E+00
S  1 1.00
8.450000000000E-02 1.000000000000E+00
P  3 1.00
4.211750000000E+01 3.651140000000E-02
9.628370000000E+00 2.371530000000E-01
2.853320000000E+00 8.197020000000E-01
P  1 1.00
9.056610000000E-01 1.000000000000E+00
P  1 1.00
2.556110000000E-01 1.000000000000E+00
P  1 1.00
8.450000000000E-02 1.000000000000E+00
D  1 1.00
2.584000000000E+00 1.000000000000E+00
D  1 1.00
6.460000000000E-01 1.000000000000E+00
F  1 1.00
1.400000000000E+00 1.000000000000E+00
****
--------------------------------------------------------------

 Total energy in the final basis set = -272.1424018945
    8    -272.1424019988      4.39E-09 Convergence criterion met
 Total energy in the final basis set = -272.1424019988
    8    -272.1424029387      2.97E-09 Convergence criterion met
 Total energy in the final basis set = -272.1424029387
    7    -272.1424029596      9.33E-09 Convergence criterion met
 Total energy in the final basis set = -272.1424029596
    7    -272.1424029661      6.71E-09 Convergence criterion met
 Total energy in the final basis set = -272.1424029661
    8    -272.1424030683      2.48E-09 Convergence criterion met
 Total energy in the final basis set = -272.1424030683
    8    -272.1424020993      3.68E-09 Convergence criterion met
 Total energy in the final basis set = -272.1424020993
    8    -272.1424020998      4.63E-09 Convergence criterion met
 Total energy in the final basis set = -272.1424020998

                    Orbital Energies (a.u.)
 --------------------------------------------------------------

 Alpha MOs
 -- Occupied --
-19.565 -10.544 -10.525 -10.506 -10.503 -10.498  -1.137  -0.940
 -0.838  -0.797  -0.726  -0.634  -0.594  -0.557  -0.549  -0.528
 -0.497  -0.483  -0.459  -0.450  -0.427  -0.411  -0.389  -0.354
 -0.194

 Beta MOs
 -- Occupied --
-19.565 -10.544 -10.516 -10.504 -10.498 -10.498  -1.137  -0.931
 -0.834  -0.791  -0.723  -0.620  -0.593  -0.547  -0.544  -0.522
 -0.491  -0.480  -0.455  -0.446  -0.426  -0.408  -0.378  -0.349

          Ground-State Mulliken Net Atomic Charges

     Atom                 Charge (a.u.)    Spin (a.u.)
  --------------------------------------------------------
      1 C                     0.339662       0.525281
      2 H                     0.288644      -0.072890
      3 C                    -0.589151       0.611182
      4 H                     0.219886      -0.017635
      5 H                     0.212984      -0.017916
      6 C                    -0.883034      -0.059306
      7 H                     0.207252       0.003950
      8 H                     0.175713       0.001610
      9 H                     0.193874       0.048696
     10 C                    -0.458984      -0.089644
     11 H                     0.222209      -0.001432
     12 H                     0.189049       0.060070
     13 C                    -0.521875       0.005284
     14 H                     0.238572       0.002064
     15 H                     0.222866       0.002480
     16 O                    -0.338843      -0.000822
     17 H                     0.281175      -0.000971
  --------------------------------------------------------
  Sum of atomic charges =     0.000000

                    Cartesian Multipole Moments
 -----------------------------------------------------------------
    Charge (ESU x 10^10)
                 0.0000
    Dipole Moment (Debye)
         X      -1.1767      Y      -0.5903      Z       0.9439
       Tot       1.6199
    Quadrupole Moments (Debye-Ang)
        XX     -46.2893     XY       0.1904     YY     -40.3571
        XZ       4.4944     YZ       0.4804     ZZ     -39.7263
    Octapole Moments (Debye-Ang^2)
       XXX      -7.0561    XXY      -4.9163    XYY       5.1854
       YYY       0.5363    XXZ      12.7730    XYZ       1.0058
       YYZ       0.4029    XZZ      13.4313    YZZ      -1.3296
       ZZZ       1.3645
    Hexadecapole Moments (Debye-Ang^3)
      XXXX    -844.8522   XXXY      14.0326   XXYY    -181.7521
      XYYY       1.4699   YYYY    -248.3330   XXXZ      44.4586
      XXYZ       8.5567   XYYZ      -0.3535   YYYZ       2.8396
      XXZZ    -140.5242   XYZZ       6.7208   YYZZ     -61.1535

       Standard Nuclear Orientation (Angstroms)
    I     Atom         X            Y            Z
 ----------------------------------------------------
    1      C      -1.053555     0.056241    -0.094629
    2      H      -1.578437     0.613120    -1.146170
    3      C      -2.144976     1.066368    -0.057694
    4      H      -3.175990     0.735611     0.024026
    5      H      -1.901726     2.110953     0.111740
    6      C      -1.436869    -1.380373     0.126598
    7      H      -0.722200    -2.082946    -0.318987
    8      H      -2.425919    -1.590347    -0.300877
    9      H      -1.497111    -1.599236     1.208681
   10      C       0.329999     0.532895     0.253505
   11      H       0.480033     1.555918    -0.122777
   12      H       0.422278     0.594784     1.358567
   13      C       1.456488    -0.347343    -0.287848
   14      H       1.378977    -0.420943    -1.380372
   15      H       1.378463    -1.369138     0.118759
   16      O       2.735470     0.199829    -0.016009
   17      H       2.851348     0.286862     0.935897
 ----------------------------------------------------

 Frequency:     -1806.74                  71.21                 104.97
 Force Cnst:      2.2255                 0.0056                 0.0171
 Red. Mass:       1.1571                 1.8706                 2.6349
 IR Intens:        0.000                  0.000                  0.000
 Frequency:       172.54                 203.35                 275.67
 Force Cnst:      0.0460                 0.0294                 0.0516
 Red. Mass:       2.6213                 1.2079                 1.1525
 IR Intens:        0.000                  0.000                  0.000
 Frequency:       323.67                 346.85                 394.50
 Force Cnst:      0.1504                 0.1503                 0.1521
 Red. Mass:       2.4358                 2.1203                 1.6583
 IR Intens:        0.000                  0.000                  0.000
 Frequency:       415.45                 462.69                 722.13
 Force Cnst:      0.1435                 0.4225                 0.3834
 Red. Mass:       1.4109                 3.3500                 1.2478
 IR Intens:        0.000                  0.000                  0.000
 Frequency:       766.80                 823.79                 929.28
 Force Cnst:      0.4013                 1.2875                 0.6971
 Red. Mass:       1.1583                 3.2201                 1.3701
 IR Intens:        0.000                  0.000                  0.000
 Frequency:       972.48                1015.26                1036.00
 Force Cnst:      0.7071                 0.9312                 1.3012
 Red. Mass:       1.2691                 1.5333                 2.0576
 IR Intens:        0.000                  0.000                  0.000
 Frequency:      1078.67                1109.62                1158.54
 Force Cnst:      1.3659                 2.6326                 0.9967
 Red. Mass:       1.9925                 3.6290                 1.2603
 IR Intens:        0.000                  0.000                  0.000
 Frequency:      1221.58                1243.07                1288.15
 Force Cnst:      1.2072                 1.3162                 1.2636
 Red. Mass:       1.3730                 1.4457                 1.2925
 IR Intens:        0.000                  0.000                  0.000
 Frequency:      1322.07                1334.73                1364.97
 Force Cnst:      1.9284                 1.5889                 1.5193
 Red. Mass:       1.8726                 1.5138                 1.3841
 IR Intens:        0.000                  0.000                  0.000
 Frequency:      1400.41                1410.44                1413.27
 Force Cnst:      1.6329                 1.7370                 1.5052
 Red. Mass:       1.4132                 1.4820                 1.2790
 IR Intens:        0.000                  0.000                  0.000
 Frequency:      1453.71                1470.62                1472.68
 Force Cnst:      1.3576                 1.3826                 1.3793
 Red. Mass:       1.0903                 1.0850                 1.0794
 IR Intens:        0.000                  0.000                  0.000
 Frequency:      1497.54                2177.88                2879.23
 Force Cnst:      1.4389                 2.9877                 5.2339
 Red. Mass:       1.0890                 1.0691                 1.0716
 IR Intens:        0.000                  0.000                  0.000
 Frequency:      2925.80                2963.92                2996.96
 Force Cnst:      5.3178                 5.5172                 5.7394
 Red. Mass:       1.0544                 1.0660                 1.0846
 IR Intens:        0.000                  0.000                  0.000
 Frequency:      3017.38                3027.42                3055.93
 Force Cnst:      5.7842                 5.9452                 6.0639
 Red. Mass:       1.0783                 1.1010                 1.1021
 IR Intens:        0.000                  0.000                  0.000
 Frequency:      3113.24                3228.29                3886.93
 Force Cnst:      5.9966                 6.8869                 9.4929
 Red. Mass:       1.0501                 1.1216                 1.0664
 IR Intens:        0.000                  0.000                  0.000

 STANDARD THERMODYNAMIC QUANTITIES AT   298.15 K  AND     1.00 ATM

   This Molecule has  1 Imaginary Frequencies
   Zero point vibrational energy:       90.849 kcal/mol

   Atom    1 Element C  Has Mass   12.00000
   Atom    2 Element H  Has Mass    1.00783
   Atom    3 Element C  Has Mass   12.00000
   Atom    4 Element H  Has Mass    1.00783
   Atom    5 Element H  Has Mass    1.00783
   Atom    6 Element C  Has Mass   12.00000
   Atom    7 Element H  Has Mass    1.00783
   Atom    8 Element H  Has Mass    1.00783
   Atom    9 Element H  Has Mass    1.00783
   Atom   10 Element C  Has Mass   12.00000
   Atom   11 Element H  Has Mass    1.00783
   Atom   12 Element H  Has Mass    1.00783
   Atom   13 Element C  Has Mass   12.00000
   Atom   14 Element H  Has Mass    1.00783
   Atom   15 Element H  Has Mass    1.00783
   Atom   16 Element O  Has Mass   15.99491
   Atom   17 Element H  Has Mass    1.00783
   Molecular Mass:    87.081040 amu
   Principal axes and moments of inertia in atomic units:
                             1           2           3
    Eigenvalues --      255.95822  1024.09249  1210.15485
          X               0.99997    -0.00069     0.00775
          Y               0.00068     1.00000     0.00109
          Z              -0.00775    -0.00108     0.99997
   Rotational Symmetry Number is   1
   The Molecule is an Asymmetric Top
   Translational Enthalpy:        0.889 kcal/mol
   Rotational Enthalpy:           0.889 kcal/mol
   Vibrational Enthalpy:         94.207 kcal/mol
   gas constant (RT):             0.592 kcal/mol
   Translational Entropy:        39.306  cal/mol.K
   Rotational Entropy:           27.253  cal/mol.K
   Vibrational Entropy:          20.227  cal/mol.K

   Total Enthalpy:               96.577 kcal/mol
   Total Entropy:                86.785  cal/mol.K

 Total job time:  65577.89s(wall), 64928.10s(cpu)
        *  Thank you very much for using Q-Chem.  Have a nice day.  *
