User input:
--------------------------------------------------------------
$rem
XC_GRID 000075000434
JOBTYPE opt
EXCHANGE M08SO
BASIS gen
GUI=2
UNRESTRICTED TRUE
CORRELATION NONE
$end

$comment
c5h11o-2
$end

$molecule
read c5h11o-1MG3S.out
$end

$basis
H  0
S  3 1.00
3.386500000000E+01 2.549380000000E-02
5.094790000000E+00 1.903730000000E-01
1.158790000000E+00 8.521610000000E-01
S  1 1.00
3.258400000000E-01 1.000000000000E+00
S  1 1.00
1.027410000000E-01 1.000000000000E+00
S  1 1.00
3.600000000000E-02 1.000000000000E+00
P  1 1.00
1.500000000000E+00 1.000000000000E+00
P  1 1.00
3.750000000000E-01 1.000000000000E+00
****
C 0
S  6 1.00
4.563240000000E+03 1.966650000000E-03
6.820240000000E+02 1.523060000000E-02
1.549730000000E+02 7.612690000000E-02
4.445530000000E+01 2.608010000000E-01
1.302900000000E+01 6.164620000000E-01
1.827730000000E+00 2.210060000000E-01
S  3 1.00
2.096420000000E+01 1.146600000000E-01
4.803310000000E+00 9.199990000000E-01
1.459330000000E+00 -3.030680000000E-03
S  1 1.00
4.834560000000E-01 1.000000000000E+00
S  1 1.00
1.455850000000E-01 1.000000000000E+00
S  1 1.00
4.380000000000E-02 1.000000000000E+00
P  3 1.00
2.096420000000E+01 4.024870000000E-02
4.803310000000E+00 2.375940000000E-01
1.459330000000E+00 8.158540000000E-01
P  1 1.00
4.834560000000E-01 1.000000000000E+00
P  1 1.00
1.455850000000E-01 1.000000000000E+00
P  1 1.00
4.380000000000E-02 1.000000000000E+00
D  1 1.00
1.252000000000E+00 1.000000000000E+00
D  1 1.00
3.130000000000E-01 1.000000000000E+00
F  1 1.00
8.000000000000E-01 1.000000000000E+00
****
O  0
S  6 1.00
8.588500000000E+03 1.895150000000E-03
1.297230000000E+03 1.438590000000E-02
2.992960000000E+02 7.073200000000E-02
8.737710000000E+01 2.400010000000E-01
2.567890000000E+01 5.947970000000E-01
3.740040000000E+00 2.808020000000E-01
S  3 1.00
4.211750000000E+01 1.138890000000E-01
9.628370000000E+00 9.208110000000E-01
2.853320000000E+00 -3.274470000000E-03
S  1 1.00
9.056610000000E-01 1.000000000000E+00
S  1 1.00
2.556110000000E-01 1.000000000000E+00
S  1 1.00
8.450000000000E-02 1.000000000000E+00
P  3 1.00
4.211750000000E+01 3.651140000000E-02
9.628370000000E+00 2.371530000000E-01
2.853320000000E+00 8.197020000000E-01
P  1 1.00
9.056610000000E-01 1.000000000000E+00
P  1 1.00
2.556110000000E-01 1.000000000000E+00
P  1 1.00
8.450000000000E-02 1.000000000000E+00
D  1 1.00
2.584000000000E+00 1.000000000000E+00
D  1 1.00
6.460000000000E-01 1.000000000000E+00
F  1 1.00
1.400000000000E+00 1.000000000000E+00
****
$end

--------------------------------------------------------------

   27    -272.1974031604      9.99E-09 Convergence criterion met
 Total energy in the final basis set = -272.1974031604
   16    -272.1975525451      6.34E-09 Convergence criterion met
 Total energy in the final basis set = -272.1975525451
   16    -272.1975767359      2.59E-09 Convergence criterion met
 Total energy in the final basis set = -272.1975767359
   15    -272.1975810650      7.23E-09 Convergence criterion met
 Total energy in the final basis set = -272.1975810650
   13    -272.1975818303      9.22E-09 Convergence criterion met
 Total energy in the final basis set = -272.1975818303
 Final energy is   -272.197581830340
 **  OPTIMIZATION CONVERGED  **
 Total job time:  9305.40s(wall), 9232.29s(cpu)
        *  Thank you very much for using Q-Chem.  Have a nice day.  *

User input:
--------------------------------------------------------------

$molecule
READ
$end

$rem
JOBTYPE Freq
XC_GRID 000075000434
EXCHANGE M08SO
BASIS gen
GUI=2
SCF_GUESS READ
$end

$basis
H  0
S  3 1.00
3.386500000000E+01 2.549380000000E-02
5.094790000000E+00 1.903730000000E-01
1.158790000000E+00 8.521610000000E-01
S  1 1.00
3.258400000000E-01 1.000000000000E+00
S  1 1.00
1.027410000000E-01 1.000000000000E+00
S  1 1.00
3.600000000000E-02 1.000000000000E+00
P  1 1.00
1.500000000000E+00 1.000000000000E+00
P  1 1.00
3.750000000000E-01 1.000000000000E+00
****
C 0
S  6 1.00
4.563240000000E+03 1.966650000000E-03
6.820240000000E+02 1.523060000000E-02
1.549730000000E+02 7.612690000000E-02
4.445530000000E+01 2.608010000000E-01
1.302900000000E+01 6.164620000000E-01
1.827730000000E+00 2.210060000000E-01
S  3 1.00
2.096420000000E+01 1.146600000000E-01
4.803310000000E+00 9.199990000000E-01
1.459330000000E+00 -3.030680000000E-03
S  1 1.00
4.834560000000E-01 1.000000000000E+00
S  1 1.00
1.455850000000E-01 1.000000000000E+00
S  1 1.00
4.380000000000E-02 1.000000000000E+00
P  3 1.00
2.096420000000E+01 4.024870000000E-02
4.803310000000E+00 2.375940000000E-01
1.459330000000E+00 8.158540000000E-01
P  1 1.00
4.834560000000E-01 1.000000000000E+00
P  1 1.00
1.455850000000E-01 1.000000000000E+00
P  1 1.00
4.380000000000E-02 1.000000000000E+00
D  1 1.00
1.252000000000E+00 1.000000000000E+00
D  1 1.00
3.130000000000E-01 1.000000000000E+00
F  1 1.00
8.000000000000E-01 1.000000000000E+00
****
O  0
S  6 1.00
8.588500000000E+03 1.895150000000E-03
1.297230000000E+03 1.438590000000E-02
2.992960000000E+02 7.073200000000E-02
8.737710000000E+01 2.400010000000E-01
2.567890000000E+01 5.947970000000E-01
3.740040000000E+00 2.808020000000E-01
S  3 1.00
4.211750000000E+01 1.138890000000E-01
9.628370000000E+00 9.208110000000E-01
2.853320000000E+00 -3.274470000000E-03
S  1 1.00
9.056610000000E-01 1.000000000000E+00
S  1 1.00
2.556110000000E-01 1.000000000000E+00
S  1 1.00
8.450000000000E-02 1.000000000000E+00
P  3 1.00
4.211750000000E+01 3.651140000000E-02
9.628370000000E+00 2.371530000000E-01
2.853320000000E+00 8.197020000000E-01
P  1 1.00
9.056610000000E-01 1.000000000000E+00
P  1 1.00
2.556110000000E-01 1.000000000000E+00
P  1 1.00
8.450000000000E-02 1.000000000000E+00
D  1 1.00
2.584000000000E+00 1.000000000000E+00
D  1 1.00
6.460000000000E-01 1.000000000000E+00
F  1 1.00
1.400000000000E+00 1.000000000000E+00
****
--------------------------------------------------------------

   15    -272.1975826443      5.19E-09 Convergence criterion met
 Total energy in the final basis set = -272.1975826443
    7    -272.1975817468      9.50E-09 Convergence criterion met
 Total energy in the final basis set = -272.1975817468
 Total energy in the final basis set = -272.1975824752
   13    -272.1975826273      5.49E-09 Convergence criterion met
 Total energy in the final basis set = -272.1975826273
    9    -272.1975825787      4.84E-09 Convergence criterion met
 Total energy in the final basis set = -272.1975825787
   14    -272.1975823595      5.92E-09 Convergence criterion met
 Total energy in the final basis set = -272.1975823595
   13    -272.1975820172      9.39E-09 Convergence criterion met
 Total energy in the final basis set = -272.1975820172
   10    -272.1975824380      6.49E-09 Convergence criterion met
 Total energy in the final basis set = -272.1975824380
   13    -272.1975825481      8.43E-09 Convergence criterion met
 Total energy in the final basis set = -272.1975825481
   14    -272.1975823870      4.98E-09 Convergence criterion met
 Total energy in the final basis set = -272.1975823870

                    Orbital Energies (a.u.)
 --------------------------------------------------------------

 Alpha MOs
 -- Occupied --
-19.610 -10.555 -10.505 -10.501 -10.487 -10.483  -1.148  -0.917
 -0.824  -0.777  -0.712  -0.650  -0.584  -0.558  -0.539  -0.510
 -0.498  -0.465  -0.455  -0.448  -0.434  -0.402  -0.395  -0.376
 -0.363

 Beta MOs
 -- Occupied --
-19.586 -10.556 -10.505 -10.501 -10.487 -10.482  -1.095  -0.915
 -0.815  -0.777  -0.698  -0.649  -0.551  -0.543  -0.533  -0.498
 -0.481  -0.460  -0.453  -0.438  -0.406  -0.397  -0.392  -0.344

          Ground-State Mulliken Net Atomic Charges

     Atom                 Charge (a.u.)    Spin (a.u.)
  --------------------------------------------------------
      1 C                    -0.044000       0.003139
      2 H                     0.260633      -0.000175
      3 C                    -0.716368       0.010962
      4 H                     0.193903       0.005560
      5 H                     0.206969       0.002434
      6 H                     0.247321      -0.000328
      7 C                    -0.646720       0.001153
      8 H                     0.196773       0.001248
      9 H                     0.184030      -0.000041
     10 H                     0.205671      -0.000255
     11 C                    -0.346218       0.033035
     12 H                     0.177308      -0.000459
     13 H                     0.302583       0.000390
     14 C                    -0.595919      -0.097309
     15 H                     0.215824       0.033291
     16 H                     0.247924       0.132261
     17 O                    -0.089713       0.875095
  --------------------------------------------------------
  Sum of atomic charges =     0.000000

                    Cartesian Multipole Moments
 -----------------------------------------------------------------
    Charge (ESU x 10^10)
                 0.0000
    Dipole Moment (Debye)
         X      -1.0457      Y       1.7040      Z      -0.7503
       Tot       2.1354
    Quadrupole Moments (Debye-Ang)
        XX     -43.0899     XY       4.3117     YY     -39.6369
        XZ      -1.1509     YZ       0.4076     ZZ     -39.8119
    Octapole Moments (Debye-Ang^2)
       XXX       2.5183    XXY       8.5145    XYY       3.3072
       YYY       1.4753    XXZ      -2.9804    XYZ       0.8809
       YYZ      -0.7163    XZZ       2.7393    YZZ      -0.3541
       ZZZ       0.8935
    Hexadecapole Moments (Debye-Ang^3)
      XXXX    -653.1076   XXXY      26.1230   XXYY    -145.0919
      XYYY      -0.5730   YYYY    -254.5464   XXXZ       4.4227
      XXYZ       3.1537   XYYZ       2.6420   YYYZ      -0.7310
      XXZZ    -122.6142   XYZZ       0.2522   YYZZ     -60.8755

       Standard Nuclear Orientation (Angstroms)
    I     Atom         X            Y            Z
 ----------------------------------------------------
    1      C      -0.867977     0.020044    -0.364238
    2      H      -0.847038     0.134297    -1.461466
    3      C      -0.614308    -1.451370    -0.023067
    4      H      -1.413045    -2.086871    -0.427404
    5      H       0.341659    -1.812100    -0.426773
    6      H      -0.584793    -1.589327     1.067298
    7      C      -2.245608     0.458797     0.143607
    8      H      -3.042720    -0.158200    -0.290144
    9      H      -2.450448     1.508627    -0.104206
   10      H      -2.296211     0.353016     1.237115
   11      C       0.220584     0.930059     0.222965
   12      H      -0.000051     1.977187    -0.033601
   13      H       0.219035     0.848567     1.321302
   14      C       1.622784     0.575564    -0.283405
   15      H       1.662726     0.526872    -1.389749
   16      H       2.334256     1.384756     0.005635
   17      O       2.172972    -0.535674     0.290853
 ----------------------------------------------------

 Frequency:        70.46                 133.06                 218.34
 Force Cnst:      0.0084                 0.0372                 0.0385
 Red. Mass:       2.8864                 3.5674                 1.3695
 IR Intens:        0.000                  0.000                  0.000
 Frequency:       227.56                 254.25                 319.57
 Force Cnst:      0.0417                 0.0438                 0.1783
 Red. Mass:       1.3654                 1.1493                 2.9627
 IR Intens:        0.000                  0.000                  0.000
 Frequency:       359.06                 408.53                 486.76
 Force Cnst:      0.1630                 0.1740                 0.3320
 Red. Mass:       2.1454                 1.7695                 2.3785
 IR Intens:        0.000                  0.000                  0.000
 Frequency:       745.63                 852.89                 861.72
 Force Cnst:      0.6327                 0.8971                 0.6642
 Red. Mass:       1.9316                 2.0932                 1.5181
 IR Intens:        0.000                  0.000                  0.000
 Frequency:       913.15                 927.96                 964.65
 Force Cnst:      0.5746                 1.1088                 0.8352
 Red. Mass:       1.1696                 2.1854                 1.5234
 IR Intens:        0.000                  0.000                  0.000
 Frequency:       985.76                1062.19                1078.15
 Force Cnst:      1.2469                 1.0628                 0.9286
 Red. Mass:       2.1778                 1.5988                 1.3558
 IR Intens:        0.000                  0.000                  0.000
 Frequency:      1119.96                1156.26                1186.13
 Force Cnst:      1.4747                 1.3552                 1.3925
 Red. Mass:       1.9955                 1.7204                 1.6799
 IR Intens:        0.000                  0.000                  0.000
 Frequency:      1226.35                1291.26                1313.56
 Force Cnst:      1.4173                 1.2117                 1.3597
 Red. Mass:       1.5995                 1.2334                 1.3375
 IR Intens:        0.000                  0.000                  0.000
 Frequency:      1348.11                1357.93                1378.35
 Force Cnst:      1.5035                 1.4692                 1.5199
 Red. Mass:       1.4041                 1.3523                 1.3578
 IR Intens:        0.000                  0.000                  0.000
 Frequency:      1386.26                1403.36                1444.37
 Force Cnst:      1.5086                 1.4614                 1.3446
 Red. Mass:       1.3324                 1.2595                 1.0939
 IR Intens:        0.000                  0.000                  0.000
 Frequency:      1460.23                1470.14                1481.05
 Force Cnst:      1.3230                 1.3401                 1.3798
 Red. Mass:       1.0531                 1.0524                 1.0676
 IR Intens:        0.000                  0.000                  0.000
 Frequency:      1484.77                2854.35                2928.38
 Force Cnst:      1.3589                 5.1028                 5.4782
 Red. Mass:       1.0462                 1.0630                 1.0843
 IR Intens:        0.000                  0.000                  0.000
 Frequency:      2954.20                2970.35                2972.67
 Force Cnst:      5.5652                 5.4021                 5.4752
 Red. Mass:       1.0823                 1.0392                 1.0516
 IR Intens:        0.000                  0.000                  0.000
 Frequency:      2975.61                3019.66                3038.22
 Force Cnst:      5.4318                 5.9310                 5.9865
 Red. Mass:       1.0412                 1.1040                 1.1007
 IR Intens:        0.000                  0.000                  0.000
 Frequency:      3043.54                3048.75                3051.75
 Force Cnst:      6.0088                 6.0361                 6.0458
 Red. Mass:       1.1010                 1.1022                 1.1018
 IR Intens:        0.000                  0.000                  0.000

 STANDARD THERMODYNAMIC QUANTITIES AT   298.15 K  AND     1.00 ATM

   This Molecule has  0 Imaginary Frequencies
   Zero point vibrational energy:       93.258 kcal/mol

   Atom    1 Element C  Has Mass   12.00000
   Atom    2 Element H  Has Mass    1.00783
   Atom    3 Element C  Has Mass   12.00000
   Atom    4 Element H  Has Mass    1.00783
   Atom    5 Element H  Has Mass    1.00783
   Atom    6 Element H  Has Mass    1.00783
   Atom    7 Element C  Has Mass   12.00000
   Atom    8 Element H  Has Mass    1.00783
   Atom    9 Element H  Has Mass    1.00783
   Atom   10 Element H  Has Mass    1.00783
   Atom   11 Element C  Has Mass   12.00000
   Atom   12 Element H  Has Mass    1.00783
   Atom   13 Element H  Has Mass    1.00783
   Atom   14 Element C  Has Mass   12.00000
   Atom   15 Element H  Has Mass    1.00783
   Atom   16 Element H  Has Mass    1.00783
   Atom   17 Element O  Has Mass   15.99491
   Molecular Mass:    87.081040 amu
   Principal axes and moments of inertia in atomic units:
                             1           2           3
    Eigenvalues --      285.64151   812.19653   999.74606
          X               0.99966     0.02256    -0.01279
          Y              -0.02246     0.99972     0.00715
          Z               0.01295    -0.00686     0.99989
   Rotational Symmetry Number is   1
   The Molecule is an Asymmetric Top
   Translational Enthalpy:        0.889 kcal/mol
   Rotational Enthalpy:           0.889 kcal/mol
   Vibrational Enthalpy:         96.338 kcal/mol
   gas constant (RT):             0.592 kcal/mol
   Translational Entropy:        39.306  cal/mol.K
   Rotational Entropy:           26.941  cal/mol.K
   Vibrational Entropy:          18.278  cal/mol.K

   Total Enthalpy:               98.708 kcal/mol
   Total Entropy:                84.525  cal/mol.K

 Total job time:  98682.95s(wall), 97501.79s(cpu)
        *  Thank you very much for using Q-Chem.  Have a nice day.  *
