 Gaussian 09, Revision D.01,
 Gaussian 09:  ES64L-G09RevD.01 24-Apr-2013

 ----------------------------------------------------------------------
 #P guess=read ub2plypd3/def2tzvp freq IOp(7/33=1) scf=(tight, direct)
 integral=(grid=ultrafine, Acc2E=12) IOp(2/9=2000) scf=xqc
 ----------------------------------------------------------------------

 ----
 C2H5
 ----
 Symbolic Z-matrix:
 Charge =  0 Multiplicity = 2

                         Standard orientation:
 ---------------------------------------------------------------------
 Center     Atomic      Atomic             Coordinates (Angstroms)
 Number     Number       Type             X           Y           Z
 ---------------------------------------------------------------------
      1          6           0       -0.791875   -0.000000   -0.020237
      2          6           0        0.692256    0.000000   -0.001425
      3          1           0       -1.346897   -0.923717    0.044220
      4          1           0       -1.346897    0.923718    0.044220
      5          1           0        1.102671   -0.884038   -0.491375
      6          1           0        1.086163   -0.000007    1.024272
      7          1           0        1.102672    0.884045   -0.491363
 ---------------------------------------------------------------------

 SCF Done:  E(UB2PLYPD3) =  -78.9972924005     A.U. after    1 cycles
 E2(B2PLYPD3) =    -0.1034456052D+00 E(B2PLYPD3) =    -0.79100738005622D+02
 E2(B2PLYPD3) =    -0.1034456052D+00 E(B2PLYPD3) =    -0.79100738005622D+02

 The electronic state is 2-A.
 Alpha  occ. eigenvalues --  -10.61524 -10.60563  -0.87200  -0.70639  -0.52327
 Alpha  occ. eigenvalues --   -0.48379  -0.45711  -0.42085  -0.26397
 Alpha virt. eigenvalues --    0.09085   0.12368   0.14410   0.16023   0.18523
 Alpha virt. eigenvalues --    0.22789   0.24489   0.27480   0.28385   0.30305
 Alpha virt. eigenvalues --    0.33146   0.35236   0.46180   0.49059   0.50093

  Beta  occ. eigenvalues --  -10.60712 -10.59791  -0.84823  -0.67173  -0.51594
  Beta  occ. eigenvalues --   -0.46123  -0.44793  -0.41593
  Beta virt. eigenvalues --    0.01990   0.09205   0.13213   0.14522   0.16244
  Beta virt. eigenvalues --    0.18687   0.23091   0.24650   0.27545   0.29041
  Beta virt. eigenvalues --    0.34792   0.35457   0.36287   0.46251   0.50323

 Mulliken charges and spin densities:
               1          2
     1  C   -0.273663   1.114248
     2  C   -0.290976  -0.109689
     3  H    0.117520  -0.052308
     4  H    0.117520  -0.052308
     5  H    0.108777   0.016768
     6  H    0.112045   0.066524
     7  H    0.108777   0.016767
 Sum of Mulliken charges =  -0.00000   1.00000

 Dipole moment (field-independent basis, Debye):
    X=              0.2245    Y=              0.0000    Z=              0.1260  Tot=              0.2574
 Quadrupole moment (field-independent basis, Debye-Ang):
   XX=            -14.5327   YY=            -13.6863   ZZ=            -15.3522
   XY=              0.0000   XZ=             -0.1765   YZ=              0.0000

  Exact polarizability:  28.829  -0.000  24.466   0.434  -0.000  22.230
 Approx polarizability:  27.312  -0.000  26.272   0.412  -0.000  24.032

                      1                      2                      3
                      A                      A                      A
 Frequencies --    115.8393               484.3319               819.3725
 Red. masses --      1.0082                 1.2152                 1.0503
 Frc consts  --      0.0080                 0.1679                 0.4154
 IR Inten    --      0.0235                59.3213                 1.5955

                      4                      5                      6
                      A                      A                      A
 Frequencies --    991.4189              1074.3844              1207.9881
 Red. masses --      1.3326                 3.2805                 1.4717
 Frc consts  --      0.7717                 2.2311                 1.2653
 IR Inten    --      0.5720                 0.0429                 2.0508

                      7                      8                      9
                      A                      A                      A
 Frequencies --   1414.4994              1483.7226              1497.2430
 Red. masses --      1.1923                 1.0961                 1.0343
 Frc consts  --      1.4056                 1.4217                 1.3662
 IR Inten    --      1.8016                 3.3275                 5.9223

                     10                     11                     12
                      A                      A                      A
 Frequencies --   1498.6008              2985.4919              3072.6538
 Red. masses --      1.1339                 1.0578                 1.0719
 Frc consts  --      1.5004                 5.5548                 5.9623
 IR Inten    --      3.0643                23.2942                20.8777

                     13                     14                     15
                      A                      A                      A
 Frequencies --   3117.7782              3176.2648              3278.3356
 Red. masses --      1.1021                 1.0508                 1.1188
 Frc consts  --      6.3119                 6.2462                 7.0845
 IR Inten    --     19.1408                14.0232                11.2696

 - Thermochemistry -
 -------------------
 Temperature   298.150 Kelvin.  Pressure   1.00000 Atm.
 Atom     1 has atomic number  6 and mass  12.00000

 Molecular mass:    29.03913 amu.
 Principal axes and moments of inertia in atomic units:
                           1         2         3
     Eigenvalues --    17.30921  78.96360  85.18880
           X            0.99999  -0.00000  -0.00457
           Y            0.00000   1.00000  -0.00000
           Z            0.00457   0.00000   0.99999
 This molecule is an asymmetric top.
 Rotational symmetry number  1.
 Rotational temperatures (Kelvin)      5.00392     1.09688     1.01673
 Rotational constants (GHZ):         104.26482    22.85536    21.18519
 Zero-point vibrational energy     156818.0 (Joules/Mol)
                                   37.48041 (Kcal/Mol)
 Warning -- explicit consideration of   2 degrees of freedom as
           vibrations may cause significant error
 Vibrational temperatures:    166.67   696.84  1178.89  1426.43  1545.80
          (Kelvin)           1738.02  2035.15  2134.74  2154.20  2156.15
                             4295.45  4420.86  4485.78  4569.93  4716.79

 Zero-point correction=                           0.059729 (Hartree/Particle)
 Thermal correction to Energy=                    0.063679
 Thermal correction to Enthalpy=                  0.064623
 Thermal correction to Gibbs Free Energy=         0.035583
 Sum of electronic and zero-point Energies=            -79.041009
 Sum of electronic and thermal Energies=               -79.037059
 Sum of electronic and thermal Enthalpies=             -79.036115
 Sum of electronic and thermal Free Energies=          -79.065156

                     E (Thermal)             CV                S
                      KCal/Mol        Cal/Mol-Kelvin    Cal/Mol-Kelvin
 Total                   39.959             11.023             61.122
 Electronic               0.000              0.000              1.377
 Translational            0.889              2.981             36.032
 Rotational               0.889              2.981             19.393
 Vibrational             38.182              5.061              4.319
 Vibration     1          0.608              1.936              3.169
 Vibration     2          0.840              1.285              0.698

 Optimization completed.
    -- Stationary point found.
 Normal termination of Gaussian 09 at Sat Nov 12 22:11:25 2022.
