 Gaussian 09, Revision D.01,
 Gaussian 09:  ES64L-G09RevD.01 24-Apr-2013

 ----------------------------------------------------------------------
 #P opt=(modredundant, calcfc, noeigentest, maxStep=5) scf=(tight, dire
 ct) integral=(grid=ultrafine, Acc2E=12) guess=read b2plypd3/def2tzvp I
 Op(2/9=2000) scf=xqc
 ----------------------------------------------------------------------

 ----
 C2H6
 ----
 Symbolic Z-matrix:
 Charge =  0 Multiplicity = 1

 SCF Done:  E(RB2PLYPD3) =  -79.6540484152     A.U. after    2 cycles
 E2(B2PLYPD3) =    -0.1148786487D+00 E(B2PLYPD3) =    -0.79768927063820D+02
 E2(B2PLYPD3) =    -0.1148786487D+00 E(B2PLYPD3) =    -0.79768927063820D+02

  Exact polarizability:  28.713   0.097  25.749   0.020   0.001  25.746
 Approx polarizability:  27.739  -0.013  28.134  -0.003  -0.000  28.134

 Optimization completed.
    -- Stationary point found.
 SCF Done:  E(RB2PLYPD3) =  -79.6531509764     A.U. after    8 cycles
 E2(B2PLYPD3) =    -0.1149203745D+00 E(B2PLYPD3) =    -0.79768071350823D+02
 SCF Done:  E(RB2PLYPD3) =  -79.6537076311     A.U. after    8 cycles
 E2(B2PLYPD3) =    -0.1148943362D+00 E(B2PLYPD3) =    -0.79768601967273D+02
 SCF Done:  E(RB2PLYPD3) =  -79.6538699033     A.U. after    8 cycles
 E2(B2PLYPD3) =    -0.1148815906D+00 E(B2PLYPD3) =    -0.79768751493879D+02
 Optimization completed.
 SCF Done:  E(RB2PLYPD3) =  -79.6526155308     A.U. after    8 cycles
 E2(B2PLYPD3) =    -0.1149381926D+00 E(B2PLYPD3) =    -0.79767553723434D+02
 SCF Done:  E(RB2PLYPD3) =  -79.6533454270     A.U. after    8 cycles
 E2(B2PLYPD3) =    -0.1148968146D+00 E(B2PLYPD3) =    -0.79768242241655D+02
 SCF Done:  E(RB2PLYPD3) =  -79.6533554619     A.U. after    6 cycles
 E2(B2PLYPD3) =    -0.1148936516D+00 E(B2PLYPD3) =    -0.79768249113504D+02
 SCF Done:  E(RB2PLYPD3) =  -79.6517990723     A.U. after    8 cycles
 E2(B2PLYPD3) =    -0.1149614024D+00 E(B2PLYPD3) =    -0.79766760474645D+02
 SCF Done:  E(RB2PLYPD3) =  -79.6525665979     A.U. after    9 cycles
 E2(B2PLYPD3) =    -0.1149139432D+00 E(B2PLYPD3) =    -0.79767480541101D+02
 SCF Done:  E(RB2PLYPD3) =  -79.6525802903     A.U. after    7 cycles
 E2(B2PLYPD3) =    -0.1149094662D+00 E(B2PLYPD3) =    -0.79767489756536D+02
 E2(B2PLYPD3) =    -0.1149856845D+00 E(B2PLYPD3) =    -0.79765805441203D+02
 E2(B2PLYPD3) =    -0.1149312078D+00 E(B2PLYPD3) =    -0.79766573845982D+02
 E2(B2PLYPD3) =    -0.1149262459D+00 E(B2PLYPD3) =    -0.79766586482256D+02
 E2(B2PLYPD3) =    -0.1150057867D+00 E(B2PLYPD3) =    -0.79764839888589D+02
 E2(B2PLYPD3) =    -0.1149456113D+00 E(B2PLYPD3) =    -0.79765669801552D+02
 E2(B2PLYPD3) =    -0.1149402847D+00 E(B2PLYPD3) =    -0.79765686670438D+02
 E2(B2PLYPD3) =    -0.1150168308D+00 E(B2PLYPD3) =    -0.79764037094746D+02
 E2(B2PLYPD3) =    -0.1149540817D+00 E(B2PLYPD3) =    -0.79764934349964D+02
 E2(B2PLYPD3) =    -0.1149492509D+00 E(B2PLYPD3) =    -0.79764955317118D+02
 E2(B2PLYPD3) =    -0.1149489737D+00 E(B2PLYPD3) =    -0.79764936601490D+02
 E2(B2PLYPD3) =    -0.1149487808D+00 E(B2PLYPD3) =    -0.79764953154136D+02
 E2(B2PLYPD3) =    -0.1149674278D+00 E(B2PLYPD3) =    -0.79764717041538D+02
 E2(B2PLYPD3) =    -0.1149395765D+00 E(B2PLYPD3) =    -0.79765673043549D+02
 E2(B2PLYPD3) =    -0.1149395954D+00 E(B2PLYPD3) =    -0.79765683108317D+02
 E2(B2PLYPD3) =    -0.1149491880D+00 E(B2PLYPD3) =    -0.79765690083553D+02
 E2(B2PLYPD3) =    -0.1149257010D+00 E(B2PLYPD3) =    -0.79766578606506D+02
 E2(B2PLYPD3) =    -0.1149256975D+00 E(B2PLYPD3) =    -0.79766583351043D+02
 E2(B2PLYPD3) =    -0.1149319356D+00 E(B2PLYPD3) =    -0.79766669497081D+02
 E2(B2PLYPD3) =    -0.1149094336D+00 E(B2PLYPD3) =    -0.79767484603845D+02
 SCF Done:  E(RB2PLYPD3) =  -79.6525788712     A.U. after    7 cycles
 E2(B2PLYPD3) =    -0.1149092100D+00 E(B2PLYPD3) =    -0.79767488081251D+02
 SCF Done:  E(RB2PLYPD3) =  -79.6525753107     A.U. after    8 cycles
 E2(B2PLYPD3) =    -0.1149180396D+00 E(B2PLYPD3) =    -0.79767493350338D+02
 SCF Done:  E(RB2PLYPD3) =  -79.6533515143     A.U. after    9 cycles
 E2(B2PLYPD3) =    -0.1148939694D+00 E(B2PLYPD3) =    -0.79768245483689D+02
 SCF Done:  E(RB2PLYPD3) =  -79.6533549890     A.U. after    6 cycles
 E2(B2PLYPD3) =    -0.1148936378D+00 E(B2PLYPD3) =    -0.79768248626817D+02
 SCF Done:  E(RB2PLYPD3) =  -79.6531312421     A.U. after    8 cycles
 E2(B2PLYPD3) =    -0.1149102534D+00 E(B2PLYPD3) =    -0.79768041495528D+02
 SCF Done:  E(RB2PLYPD3) =  -79.6538651907     A.U. after    9 cycles
 E2(B2PLYPD3) =    -0.1148832116D+00 E(B2PLYPD3) =    -0.79768748402316D+02
 SCF Done:  E(RB2PLYPD3) =  -79.6538689788     A.U. after    6 cycles
 E2(B2PLYPD3) =    -0.1148826039D+00 E(B2PLYPD3) =    -0.79768751582754D+02
    -- Stationary point found.
 SCF Done:  E(RB2PLYPD3) =  -79.6533314151     A.U. after    8 cycles
 E2(B2PLYPD3) =    -0.1149107443D+00 E(B2PLYPD3) =    -0.79768242159431D+02
 SCF Done:  E(RB2PLYPD3) =  -79.6540438456     A.U. after    9 cycles
 E2(B2PLYPD3) =    -0.1148791540D+00 E(B2PLYPD3) =    -0.79768922999622D+02
 SCF Done:  E(RB2PLYPD3) =  -79.6540482937     A.U. after    7 cycles
 E2(B2PLYPD3) =    -0.1148786148D+00 E(B2PLYPD3) =    -0.79768926908525D+02
 Optimization completed.
    -- Stationary point found.

                         Standard orientation:
 ---------------------------------------------------------------------
 Center     Atomic      Atomic             Coordinates (Angstroms)
 Number     Number       Type             X           Y           Z
 ---------------------------------------------------------------------
      1          6           0       -0.762541    0.000017   -0.000010
      2          6           0        0.762539   -0.000040   -0.000009
      3          1           0       -1.157771    1.013148    0.080338
      4          1           0       -1.158607   -0.436619   -0.917440
      5          1           0       -1.158717   -0.575860    0.836981
      6          1           0        1.158857    0.575893   -0.836925
      7          1           0        1.157906   -1.013130   -0.080287
      8          1           0        1.158345    0.436707    0.917448
 ---------------------------------------------------------------------

 The electronic state is 1-A.
 Alpha  occ. eigenvalues --  -10.59793 -10.59754  -0.86430  -0.71080  -0.50387
 Alpha  occ. eigenvalues --   -0.50384  -0.42869  -0.40412  -0.40410
 Alpha virt. eigenvalues --    0.08137   0.12008   0.15525   0.15527   0.16870
 Alpha virt. eigenvalues --    0.16873   0.24259   0.24282   0.28246   0.28253
 Alpha virt. eigenvalues --    0.29450   0.29456   0.45016   0.47464   0.50197

 Mulliken charges:
               1
     1  C   -0.299078
     2  C   -0.299081
     3  H    0.099670
     4  H    0.099698
     5  H    0.099712
     6  H    0.099712
     7  H    0.099673
     8  H    0.099695
 Sum of Mulliken charges =  -0.00000

 Dipole moment (field-independent basis, Debye):
    X=              0.0000    Y=              0.0001    Z=              0.0001  Tot=              0.0001
 Quadrupole moment (field-independent basis, Debye-Ang):
   XX=            -15.7469   YY=            -14.9697   ZZ=            -14.9699
   XY=              0.0019   XZ=             -0.0005   YZ=             -0.0001

 Normal termination of Gaussian 09 at Sat Nov 12 22:40:12 2022.
