 Gaussian 09, Revision D.01,
 Gaussian 09:  ES64L-G09RevD.01 24-Apr-2013

 ----------------------------------------------------------------------
 #P guess=read b2plypd3/def2tzvp freq IOp(7/33=1) scf=(tight, direct) i
 ntegral=(grid=ultrafine, Acc2E=12) IOp(2/9=2000) scf=xqc
 ----------------------------------------------------------------------

 -------
 Ethynol
 -------
 Symbolic Z-matrix:
 Charge =  0 Multiplicity = 1

                         Standard orientation:
 ---------------------------------------------------------------------
 Center     Atomic      Atomic             Coordinates (Angstroms)
 Number     Number       Type             X           Y           Z
 ---------------------------------------------------------------------
      1          6           0        0.000000    1.323902    0.000000
      2          6           0        0.006595    0.121717    0.000000
      3          8           0        0.095256   -1.185255   -0.000000
      4          1           0       -0.013011    2.383667    0.000000
      5          1           0       -0.788609   -1.575338   -0.000000
 ---------------------------------------------------------------------

 SCF Done:  E(RB2PLYPD3) =  -152.314385078     A.U. after    2 cycles
 E2(B2PLYPD3) =    -0.1765917578D+00 E(B2PLYPD3) =    -0.15249097683594D+03
 E2(B2PLYPD3) =    -0.1765917578D+00 E(B2PLYPD3) =    -0.15249097683594D+03

 The electronic state is 1-A'.
 Alpha  occ. eigenvalues --  -19.80445 -10.67924 -10.60761  -1.25176  -0.86404
 Alpha  occ. eigenvalues --   -0.71138  -0.59934  -0.55444  -0.51226  -0.32861
 Alpha  occ. eigenvalues --   -0.30918
 Alpha virt. eigenvalues --    0.04893   0.11132   0.12131   0.13214   0.16126
 Alpha virt. eigenvalues --    0.24223   0.26726   0.27594   0.33340   0.34920
 Alpha virt. eigenvalues --    0.37151   0.43399   0.43743   0.46427   0.55576

 Mulliken charges:
               1
     1  C   -0.351728
     2  C    0.226588
     3  O   -0.426595
     4  H    0.191669
     5  H    0.360065
 Sum of Mulliken charges =  -0.00000

 Dipole moment (field-independent basis, Debye):
    X=             -1.6078    Y=             -0.6477    Z=              0.0000  Tot=              1.7334
 Quadrupole moment (field-independent basis, Debye-Ang):
   XX=            -17.1163   YY=            -12.4660   ZZ=            -18.9782
   XY=              3.0015   XZ=             -0.0000   YZ=             -0.0000

  Exact polarizability:  17.852   1.004  39.385   0.000  -0.000  16.969
 Approx polarizability:  20.358   0.765  49.580  -0.000   0.000  18.842

                      1                      2                      3
                     A'                     A"                     A"
 Frequencies --    385.5717               422.1428               539.1313
 Red. masses --      5.4154                 8.3354                 1.1827
 Frc consts  --      0.4743                 0.8752                 0.2025
 IR Inten    --     11.3465                 6.2762                64.9647

                      4                      5                      6
                     A'                     A'                     A'
 Frequencies --    629.9366              1079.6752              1256.2613
 Red. masses --      1.1706                 9.4025                 1.1734
 Frc consts  --      0.2737                 6.4577                 1.0911
 IR Inten    --     54.1510                91.9493                88.9840

                      7                      8                      9
                     A'                     A'                     A'
 Frequencies --   2253.8627              3503.2347              3774.3344
 Red. masses --      6.3120                 1.1538                 1.0660
 Frc consts  --     18.8917                 8.3433                 8.9469
 IR Inten    --    141.2537                94.7229               121.4714

 - Thermochemistry -
 -------------------
 Temperature   298.150 Kelvin.  Pressure   1.00000 Atm.
 Atom     1 has atomic number  6 and mass  12.00000

 Molecular mass:    42.01056 amu.
 Principal axes and moments of inertia in atomic units:
                           1         2         3
     Eigenvalues --     2.68336 185.33465 188.01800
           X           -0.01096   0.99994   0.00000
           Y            0.99994   0.01096  -0.00000
           Z            0.00000  -0.00000   1.00000
 This molecule is an asymmetric top.
 Rotational symmetry number  1.
 Rotational temperatures (Kelvin)     32.27815     0.46734     0.46067
 Rotational constants (GHZ):         672.56830     9.73774     9.59877
 Zero-point vibrational energy      82806.4 (Joules/Mol)
                                   19.79121 (Kcal/Mol)
 Warning -- explicit consideration of   3 degrees of freedom as
           vibrations may cause significant error
 Vibrational temperatures:    554.75   607.37   775.69   906.34  1553.41
          (Kelvin)           1807.48  3242.80  5040.37  5430.42

 Zero-point correction=                           0.031539 (Hartree/Particle)
 Thermal correction to Energy=                    0.035365
 Thermal correction to Enthalpy=                  0.036310
 Thermal correction to Gibbs Free Energy=         0.008144
 Sum of electronic and zero-point Energies=           -152.459438
 Sum of electronic and thermal Energies=              -152.455611
 Sum of electronic and thermal Enthalpies=            -152.454667
 Sum of electronic and thermal Free Energies=         -152.482833

                     E (Thermal)             CV                S
                      KCal/Mol        Cal/Mol-Kelvin    Cal/Mol-Kelvin
 Total                   22.192             11.490             59.279
 Electronic               0.000              0.000              0.000
 Translational            0.889              2.981             37.133
 Rotational               0.889              2.981             19.175
 Vibrational             20.415              5.529              2.971
 Vibration     1          0.754              1.501              1.017
 Vibration     2          0.784              1.422              0.885
 Vibration     3          0.894              1.164              0.567

 Optimization completed.
    -- Stationary point found.
 Normal termination of Gaussian 09 at Sat Nov 12 21:52:51 2022.
