User input:
--------------------------------------------------------------
$rem
XC_GRID 000075000434
JOBTYPE opt
EXCHANGE M08SO
BASIS gen
GUI=2
UNRESTRICTED TRUE
CORRELATION NONE
$end

$comment
c5h11o-2
$end

$molecule
read c5h11o-3MG3S.out
$end

$basis
H  0
S  3 1.00
3.386500000000E+01 2.549380000000E-02
5.094790000000E+00 1.903730000000E-01
1.158790000000E+00 8.521610000000E-01
S  1 1.00
3.258400000000E-01 1.000000000000E+00
S  1 1.00
1.027410000000E-01 1.000000000000E+00
S  1 1.00
3.600000000000E-02 1.000000000000E+00
P  1 1.00
1.500000000000E+00 1.000000000000E+00
P  1 1.00
3.750000000000E-01 1.000000000000E+00
****
C 0
S  6 1.00
4.563240000000E+03 1.966650000000E-03
6.820240000000E+02 1.523060000000E-02
1.549730000000E+02 7.612690000000E-02
4.445530000000E+01 2.608010000000E-01
1.302900000000E+01 6.164620000000E-01
1.827730000000E+00 2.210060000000E-01
S  3 1.00
2.096420000000E+01 1.146600000000E-01
4.803310000000E+00 9.199990000000E-01
1.459330000000E+00 -3.030680000000E-03
S  1 1.00
4.834560000000E-01 1.000000000000E+00
S  1 1.00
1.455850000000E-01 1.000000000000E+00
S  1 1.00
4.380000000000E-02 1.000000000000E+00
P  3 1.00
2.096420000000E+01 4.024870000000E-02
4.803310000000E+00 2.375940000000E-01
1.459330000000E+00 8.158540000000E-01
P  1 1.00
4.834560000000E-01 1.000000000000E+00
P  1 1.00
1.455850000000E-01 1.000000000000E+00
P  1 1.00
4.380000000000E-02 1.000000000000E+00
D  1 1.00
1.252000000000E+00 1.000000000000E+00
D  1 1.00
3.130000000000E-01 1.000000000000E+00
F  1 1.00
8.000000000000E-01 1.000000000000E+00
****
O  0
S  6 1.00
8.588500000000E+03 1.895150000000E-03
1.297230000000E+03 1.438590000000E-02
2.992960000000E+02 7.073200000000E-02
8.737710000000E+01 2.400010000000E-01
2.567890000000E+01 5.947970000000E-01
3.740040000000E+00 2.808020000000E-01
S  3 1.00
4.211750000000E+01 1.138890000000E-01
9.628370000000E+00 9.208110000000E-01
2.853320000000E+00 -3.274470000000E-03
S  1 1.00
9.056610000000E-01 1.000000000000E+00
S  1 1.00
2.556110000000E-01 1.000000000000E+00
S  1 1.00
8.450000000000E-02 1.000000000000E+00
P  3 1.00
4.211750000000E+01 3.651140000000E-02
9.628370000000E+00 2.371530000000E-01
2.853320000000E+00 8.197020000000E-01
P  1 1.00
9.056610000000E-01 1.000000000000E+00
P  1 1.00
2.556110000000E-01 1.000000000000E+00
P  1 1.00
8.450000000000E-02 1.000000000000E+00
D  1 1.00
2.584000000000E+00 1.000000000000E+00
D  1 1.00
6.460000000000E-01 1.000000000000E+00
F  1 1.00
1.400000000000E+00 1.000000000000E+00
****
$end

--------------------------------------------------------------

   19    -272.2073855259      4.37E-09 Convergence criterion met
 Total energy in the final basis set = -272.2073855259
   11    -272.2075496094      5.37E-09 Convergence criterion met
 Total energy in the final basis set = -272.2075496094
   10    -272.2075670038      8.90E-09 Convergence criterion met
 Total energy in the final basis set = -272.2075670038
   11    -272.2075800484      3.24E-09 Convergence criterion met
 Total energy in the final basis set = -272.2075800484
   11    -272.2075913374      3.57E-09 Convergence criterion met
 Total energy in the final basis set = -272.2075913374
   11    -272.2076006519      3.57E-09 Convergence criterion met
 Total energy in the final basis set = -272.2076006519
   10    -272.2076066819      5.15E-09 Convergence criterion met
 Total energy in the final basis set = -272.2076066819
   11    -272.2076202134      3.68E-09 Convergence criterion met
 **  OPTIMIZATION CONVERGED  **
 Total job time:  19839.87s(wall), 19681.35s(cpu)
        *  Thank you very much for using Q-Chem.  Have a nice day.  *

User input:
--------------------------------------------------------------

$molecule
READ
$end

$rem
JOBTYPE Freq
XC_GRID 000075000434
EXCHANGE M08SO
BASIS gen
GUI=2
SCF_GUESS READ
$end

$basis
H  0
S  3 1.00
3.386500000000E+01 2.549380000000E-02
5.094790000000E+00 1.903730000000E-01
1.158790000000E+00 8.521610000000E-01
S  1 1.00
3.258400000000E-01 1.000000000000E+00
S  1 1.00
1.027410000000E-01 1.000000000000E+00
S  1 1.00
3.600000000000E-02 1.000000000000E+00
P  1 1.00
1.500000000000E+00 1.000000000000E+00
P  1 1.00
3.750000000000E-01 1.000000000000E+00
****
C 0
S  6 1.00
4.563240000000E+03 1.966650000000E-03
6.820240000000E+02 1.523060000000E-02
1.549730000000E+02 7.612690000000E-02
4.445530000000E+01 2.608010000000E-01
1.302900000000E+01 6.164620000000E-01
1.827730000000E+00 2.210060000000E-01
S  3 1.00
2.096420000000E+01 1.146600000000E-01
4.803310000000E+00 9.199990000000E-01
1.459330000000E+00 -3.030680000000E-03
S  1 1.00
4.834560000000E-01 1.000000000000E+00
S  1 1.00
1.455850000000E-01 1.000000000000E+00
S  1 1.00
4.380000000000E-02 1.000000000000E+00
P  3 1.00
2.096420000000E+01 4.024870000000E-02
4.803310000000E+00 2.375940000000E-01
1.459330000000E+00 8.158540000000E-01
P  1 1.00
4.834560000000E-01 1.000000000000E+00
P  1 1.00
1.455850000000E-01 1.000000000000E+00
P  1 1.00
4.380000000000E-02 1.000000000000E+00
D  1 1.00
1.252000000000E+00 1.000000000000E+00
D  1 1.00
3.130000000000E-01 1.000000000000E+00
F  1 1.00
8.000000000000E-01 1.000000000000E+00
****
O  0
S  6 1.00
8.588500000000E+03 1.895150000000E-03
1.297230000000E+03 1.438590000000E-02
2.992960000000E+02 7.073200000000E-02
8.737710000000E+01 2.400010000000E-01
2.567890000000E+01 5.947970000000E-01
3.740040000000E+00 2.808020000000E-01
S  3 1.00
4.211750000000E+01 1.138890000000E-01
9.628370000000E+00 9.208110000000E-01
2.853320000000E+00 -3.274470000000E-03
S  1 1.00
9.056610000000E-01 1.000000000000E+00
S  1 1.00
2.556110000000E-01 1.000000000000E+00
S  1 1.00
8.450000000000E-02 1.000000000000E+00
P  3 1.00
4.211750000000E+01 3.651140000000E-02
9.628370000000E+00 2.371530000000E-01
2.853320000000E+00 8.197020000000E-01
P  1 1.00
9.056610000000E-01 1.000000000000E+00
P  1 1.00
2.556110000000E-01 1.000000000000E+00
P  1 1.00
8.450000000000E-02 1.000000000000E+00
D  1 1.00
2.584000000000E+00 1.000000000000E+00
D  1 1.00
6.460000000000E-01 1.000000000000E+00
F  1 1.00
1.400000000000E+00 1.000000000000E+00
****
--------------------------------------------------------------

 Total energy in the final basis set = -272.2078909003
    7    -272.2078909121      6.59E-09 Convergence criterion met
 Total energy in the final basis set = -272.2078909121
    7    -272.2078909475      3.81E-09 Convergence criterion met
 Total energy in the final basis set = -272.2078909475
    7    -272.2078909836      3.87E-09 Convergence criterion met
 Total energy in the final basis set = -272.2078909836
    7    -272.2078909492      2.28E-09 Convergence criterion met
 Total energy in the final basis set = -272.2078909492
    7    -272.2078909509      4.72E-09 Convergence criterion met
 Total energy in the final basis set = -272.2078909509
    7    -272.2078905050      7.28E-09 Convergence criterion met
 Total energy in the final basis set = -272.2078905050
    8    -272.2078904653      2.68E-09 Convergence criterion met
 Total energy in the final basis set = -272.2078904653

                    Orbital Energies (a.u.)
 --------------------------------------------------------------

 Alpha MOs
 -- Occupied --
-19.563 -10.545 -10.514 -10.513 -10.498 -10.491  -1.133  -0.923
 -0.826  -0.787  -0.720  -0.650  -0.591  -0.550  -0.527  -0.525
 -0.490  -0.474  -0.460  -0.453  -0.421  -0.408  -0.392  -0.364
 -0.270

 Beta MOs
 -- Occupied --
-19.561 -10.546 -10.515 -10.497 -10.496 -10.491  -1.128  -0.917
 -0.819  -0.785  -0.714  -0.641  -0.587  -0.545  -0.524  -0.512
 -0.487  -0.473  -0.458  -0.448  -0.412  -0.406  -0.393  -0.361

          Ground-State Mulliken Net Atomic Charges

     Atom                 Charge (a.u.)    Spin (a.u.)
  --------------------------------------------------------
      1 C                    -0.097733      -0.068933
      2 H                     0.262321       0.045855
      3 C                     0.063733       1.030814
      4 H                     0.289626      -0.054485
      5 C                    -0.748573      -0.020071
      6 H                     0.193123       0.020771
      7 H                     0.269651      -0.002984
      8 O                    -0.285764       0.023712
      9 H                     0.265615       0.001653
     10 C                    -0.738811       0.009035
     11 H                     0.192439       0.000946
     12 H                     0.195334      -0.000867
     13 H                     0.213454       0.003448
     14 C                    -0.737440      -0.006176
     15 H                     0.215840      -0.000232
     16 H                     0.202321       0.012184
     17 H                     0.244865       0.005329
  --------------------------------------------------------
  Sum of atomic charges =     0.000000

                    Cartesian Multipole Moments
 -----------------------------------------------------------------
    Charge (ESU x 10^10)
                 0.0000
    Dipole Moment (Debye)
         X      -2.0867      Y      -0.3245      Z      -0.5256
       Tot       2.1762
    Quadrupole Moments (Debye-Ang)
        XX     -47.2442     XY       0.5425     YY     -38.6275
        XZ      -1.6067     YZ      -0.7295     ZZ     -39.6344
    Octapole Moments (Debye-Ang^2)
       XXX     -16.0745    XXY       1.1666    XYY       6.3308
       YYY      -1.0947    XXZ      -6.5145    XYZ      -2.7414
       YYZ       2.2643    XZZ       3.1363    YZZ      -1.9982
       ZZZ       1.9176
    Hexadecapole Moments (Debye-Ang^3)
      XXXX    -770.7562   XXXY      12.8520   XXYY    -147.0509
      XYYY      -3.5112   YYYY    -240.7562   XXXZ      -7.5514
      XXYZ      -4.7746   XYYZ       4.5778   YYYZ      -0.2170
      XXZZ    -136.4061   XYZZ      -3.4509   YYZZ     -56.5307

       Standard Nuclear Orientation (Angstroms)
    I     Atom         X            Y            Z
 ----------------------------------------------------
    1      C      -0.985011     0.058968    -0.369539
    2      H      -1.078292     0.156838    -1.467771
    3      C       0.230635     0.818752     0.066701
    4      H       0.152119     1.554745     0.868349
    5      C       1.582205     0.483367    -0.468711
    6      H       2.160585     1.388577    -0.696194
    7      H       1.484043    -0.092800    -1.405795
    8      O       2.380974    -0.243238     0.471686
    9      H       1.843393    -0.945848     0.854652
   10      C      -2.258061     0.606465     0.281552
   11      H      -2.396765     1.669685     0.049265
   12      H      -3.145373     0.059545    -0.061001
   13      H      -2.197666     0.502920     1.374294
   14      C      -0.822326    -1.445708    -0.065394
   15      H       0.084377    -1.854357    -0.533309
   16      H      -1.680450    -2.016464    -0.444046
   17      H      -0.758421    -1.607997     1.020418
 ----------------------------------------------------

 Frequency:        55.28                  85.62                 223.58
 Force Cnst:      0.0059                 0.0119                 0.0544
 Red. Mass:       3.2751                 2.7569                 1.8462
 IR Intens:        0.000                  0.000                  0.000
 Frequency:       231.83                 267.89                 303.66
 Force Cnst:      0.0332                 0.0510                 0.0796
 Red. Mass:       1.0489                 1.2050                 1.4651
 IR Intens:        0.000                  0.000                  0.000
 Frequency:       324.54                 342.16                 384.73
 Force Cnst:      0.0733                 0.1206                 0.2134
 Red. Mass:       1.1810                 1.7487                 2.4465
 IR Intens:        0.000                  0.000                  0.000
 Frequency:       456.53                 582.91                 796.42
 Force Cnst:      0.2893                 0.5980                 0.7986
 Red. Mass:       2.3555                 2.9871                 2.1369
 IR Intens:        0.000                  0.000                  0.000
 Frequency:       898.67                 912.23                 954.97
 Force Cnst:      0.8026                 0.6141                 0.7353
 Red. Mass:       1.6867                 1.2525                 1.3686
 IR Intens:        0.000                  0.000                  0.000
 Frequency:       983.42                1035.02                1090.30
 Force Cnst:      0.8215                 4.4222                 1.4724
 Red. Mass:       1.4417                 7.0064                 2.1023
 IR Intens:        0.000                  0.000                  0.000
 Frequency:      1120.19                1140.91                1184.20
 Force Cnst:      1.4510                 1.1656                 1.2870
 Red. Mass:       1.9626                 1.5199                 1.5576
 IR Intens:        0.000                  0.000                  0.000
 Frequency:      1196.96                1274.81                1303.50
 Force Cnst:      1.2907                 1.2601                 1.4327
 Red. Mass:       1.5290                 1.3160                 1.4311
 IR Intens:        0.000                  0.000                  0.000
 Frequency:      1325.89                1370.96                1380.20
 Force Cnst:      1.2567                 1.3886                 1.4578
 Red. Mass:       1.2133                 1.2540                 1.2989
 IR Intens:        0.000                  0.000                  0.000
 Frequency:      1396.52                1420.54                1466.88
 Force Cnst:      1.4848                 2.0697                 1.3353
 Red. Mass:       1.2921                 1.7408                 1.0532
 IR Intens:        0.000                  0.000                  0.000
 Frequency:      1470.14                1479.26                1490.09
 Force Cnst:      1.3297                 1.3691                 1.3809
 Red. Mass:       1.0442                 1.0620                 1.0556
 IR Intens:        0.000                  0.000                  0.000
 Frequency:      1493.15                2912.37                2952.38
 Force Cnst:      1.4856                 5.4026                 5.4842
 Red. Mass:       1.1310                 1.0811                 1.0679
 IR Intens:        0.000                  0.000                  0.000
 Frequency:      2965.57                2976.56                3021.04
 Force Cnst:      5.3591                 5.4126                 5.8819
 Red. Mass:       1.0343                 1.0369                 1.0938
 IR Intens:        0.000                  0.000                  0.000
 Frequency:      3036.97                3043.50                3045.69
 Force Cnst:      5.9918                 6.0098                 6.0130
 Red. Mass:       1.1026                 1.1012                 1.1002
 IR Intens:        0.000                  0.000                  0.000
 Frequency:      3059.77                3145.30                3880.81
 Force Cnst:      6.0809                 6.3436                 9.4642
 Red. Mass:       1.1024                 1.0883                 1.0666
 IR Intens:        0.000                  0.000                  0.000

 STANDARD THERMODYNAMIC QUANTITIES AT   298.15 K  AND     1.00 ATM

   This Molecule has  0 Imaginary Frequencies
   Zero point vibrational energy:       93.614 kcal/mol

   Atom    1 Element C  Has Mass   12.00000
   Atom    2 Element H  Has Mass    1.00783
   Atom    3 Element C  Has Mass   12.00000
   Atom    4 Element H  Has Mass    1.00783
   Atom    5 Element C  Has Mass   12.00000
   Atom    6 Element H  Has Mass    1.00783
   Atom    7 Element H  Has Mass    1.00783
   Atom    8 Element O  Has Mass   15.99491
   Atom    9 Element H  Has Mass    1.00783
   Atom   10 Element C  Has Mass   12.00000
   Atom   11 Element H  Has Mass    1.00783
   Atom   12 Element H  Has Mass    1.00783
   Atom   13 Element H  Has Mass    1.00783
   Atom   14 Element C  Has Mass   12.00000
   Atom   15 Element H  Has Mass    1.00783
   Atom   16 Element H  Has Mass    1.00783
   Atom   17 Element H  Has Mass    1.00783
   Molecular Mass:    87.081040 amu
   Principal axes and moments of inertia in atomic units:
                             1           2           3
    Eigenvalues --      279.60222   914.31182  1062.31853
          X               0.99989     0.00253    -0.01485
          Y              -0.00236     0.99993     0.01167
          Z               0.01488    -0.01164     0.99982
   Rotational Symmetry Number is   1
   The Molecule is an Asymmetric Top
   Translational Enthalpy:        0.889 kcal/mol
   Rotational Enthalpy:           0.889 kcal/mol
   Vibrational Enthalpy:         97.072 kcal/mol
   gas constant (RT):             0.592 kcal/mol
   Translational Entropy:        39.306  cal/mol.K
   Rotational Entropy:           27.098  cal/mol.K
   Vibrational Entropy:          21.202  cal/mol.K

   Total Enthalpy:               99.442 kcal/mol
   Total Entropy:                87.606  cal/mol.K

 Total job time:  82781.88s(wall), 82151.01s(cpu)
        *  Thank you very much for using Q-Chem.  Have a nice day.  *
