 Gaussian 16, Revision A.03,
 Gaussian 16:  EM64L-G16RevA.03 25-Dec-2016

 ------
 #p G4/
 ------

 ------------------------------
 Gaussian input prepared by ASE
 ------------------------------
 Symbolic Z-matrix:
 Charge =  0 Multiplicity = 1

 SCF Done:  E(RB3LYP) =  -79.8385605486     A.U. after    9 cycles
 SCF Done:  E(RB3LYP) =  -79.8386928973     A.U. after    6 cycles
 SCF Done:  E(RB3LYP) =  -79.8386938160     A.U. after    5 cycles
 Optimization completed.
    -- Stationary point found.
 Normal termination of Gaussian 16 at Fri Aug 30 22:36:40 2019.

 ----------------------------------------------------------
 #P Geom=AllCheck Guess=TCheck SCRF=Check B3LYP/GTBas3 Freq
 ----------------------------------------------------------

 Structure from the checkpoint file:  "/scratch/westgroup/GAUSS_SCRDIR/Gau-12159.chk"
 ------------------------------
 Gaussian input prepared by ASE
 ------------------------------
 Charge =  0 Multiplicity = 1

 SCF Done:  E(RB3LYP) =  -79.8386938160     A.U. after    1 cycles

  Exact polarizability:  25.384   0.000  23.219  -0.000  -0.000  23.219
 Approx polarizability:  30.150  -0.000  30.983  -0.000  -0.000  30.983

                      1                      2                      3
                      A                      A                      A
 Frequencies --    310.7168               822.6411               822.6679
 Red. masses --      1.0078                 1.0582                 1.0582
 Frc consts  --      0.0573                 0.4219                 0.4220
 IR Inten    --      0.0000                 3.8731                 3.8719

                      4                      5                      6
                      A                      A                      A
 Frequencies --   1002.9124              1221.7122              1221.7826
 Red. masses --      3.2976                 1.4708                 1.4708
 Frc consts  --      1.9542                 1.2934                 1.2936
 IR Inten    --      0.0000                 0.0000                 0.0000

                      7                      8                      9
                      A                      A                      A
 Frequencies --   1408.1147              1421.7155              1502.2661
 Red. masses --      1.1982                 1.2507                 1.0181
 Frc consts  --      1.3998                 1.4895                 1.3538
 IR Inten    --      0.0197                 0.0000                 0.0000

                     10                     11                     12
                      A                      A                      A
 Frequencies --   1502.2828              1507.3794              1507.4153
 Red. masses --      1.0181                 1.0619                 1.0619
 Frc consts  --      1.3538                 1.4216                 1.4217
 IR Inten    --      0.0000                 5.7857                 5.7845

                     13                     14                     15
                      A                      A                      A
 Frequencies --   3034.4689              3035.7864              3087.1726
 Red. masses --      1.0363                 1.0342                 1.1005
 Frc consts  --      5.6219                 5.6154                 6.1794
 IR Inten    --      0.0000                55.1434                 0.0000

                     16                     17                     18
                      A                      A                      A
 Frequencies --   3087.2217              3112.1635              3112.2170
 Red. masses --      1.1005                 1.1024                 1.1024
 Frc consts  --      6.1797                 6.2911                 6.2913
 IR Inten    --      0.0000                63.3845                63.3854

 - Thermochemistry -
 -------------------
 Temperature   298.150 Kelvin.  Pressure   1.00000 Atm.
 Atom     1 has atomic number  6 and mass  12.00000

 Molecular mass:    30.04695 amu.
 Principal axes and moments of inertia in atomic units:
                           1         2         3
     Eigenvalues --    22.44975  90.64208  90.64211
           X            1.00000   0.00000   0.00000
           Y           -0.00000   1.00000  -0.00000
           Z           -0.00000   0.00000   1.00000
 This molecule is an asymmetric top.
 Rotational symmetry number  1.
 Rotational temperatures (Kelvin)      3.85812     0.95556     0.95556
 Rotational constants (GHZ):          80.39024    19.91063    19.91063
 Zero-point vibrational energy     195712.9 (Joules/Mol)
                                   46.77650 (Kcal/Mol)
 Warning -- explicit consideration of   1 degrees of freedom as
           vibrations may cause significant error
 Vibrational temperatures:    447.05  1183.60  1183.64  1442.97  1757.77
          (Kelvin)           1757.87  2025.96  2045.53  2161.43  2161.45
                             2168.78  2168.83  4365.92  4367.82  4441.75
                             4441.82  4477.71  4477.79

 Zero-point correction=                           0.074543 (Hartree/Particle)
 Thermal correction to Energy=                    0.078027
 Thermal correction to Enthalpy=                  0.078971
 Thermal correction to Gibbs Free Energy=         0.051428
 Sum of electronic and zero-point Energies=            -79.764151
 Sum of electronic and thermal Energies=               -79.760667
 Sum of electronic and thermal Enthalpies=             -79.759722
 Sum of electronic and thermal Free Energies=          -79.787266

                     E (Thermal)             CV                S
                      KCal/Mol        Cal/Mol-Kelvin    Cal/Mol-Kelvin
 Total                   48.963             10.096             57.970
 Electronic               0.000              0.000              0.000
 Translational            0.889              2.981             36.134
 Rotational               0.889              2.981             19.850
 Vibrational             47.185              4.134              1.986
 Vibration     1          0.700              1.653              1.359

 Optimization completed.
    -- Stationary point found.
 Normal termination of Gaussian 16 at Fri Aug 30 22:37:04 2019.

 -----------------------------------------------------------------
 #P Geom=AllCheck Guess=TCheck SCRF=Check CCSD(T,E4T,FrzG4)/GTBas1
 -----------------------------------------------------------------

 Structure from the checkpoint file:  "/scratch/westgroup/GAUSS_SCRDIR/Gau-12159.chk"
 ------------------------------
 Gaussian input prepared by ASE
 ------------------------------
 Charge =  0 Multiplicity = 1

 SCF Done:  E(RHF) =  -79.2283983250     A.U. after    9 cycles
 E2 =    -0.2663101352D+00 EUMP2 =    -0.79494708460247D+02
 CCSD(T)
 CCSD(T)= -0.79534465123D+02
 Normal termination of Gaussian 16 at Fri Aug 30 22:37:07 2019.

 ---------------------------------------------------------
 #P Geom=AllCheck Guess=TCheck SCRF=Check MP4=FrzG4/GTBas2
 ---------------------------------------------------------

 Structure from the checkpoint file:  "/scratch/westgroup/GAUSS_SCRDIR/Gau-12159.chk"
 ------------------------------
 Gaussian input prepared by ASE
 ------------------------------
 Charge =  0 Multiplicity = 1

 SCF Done:  E(RHF) =  -79.2291155971     A.U. after    8 cycles
 E2 =    -0.2684675657D+00 EUMP2 =    -0.79497583162845D+02
 Normal termination of Gaussian 16 at Fri Aug 30 22:37:10 2019.

 ---------------------------------------------------------
 #P Geom=AllCheck Guess=TCheck SCRF=Check MP4=FrzG4/GTBas3
 ---------------------------------------------------------

 Structure from the checkpoint file:  "/scratch/westgroup/GAUSS_SCRDIR/Gau-12159.chk"
 ------------------------------
 Gaussian input prepared by ASE
 ------------------------------
 Charge =  0 Multiplicity = 1

 SCF Done:  E(RHF) =  -79.2414080476     A.U. after    8 cycles
 E2 =    -0.3424124626D+00 EUMP2 =    -0.79583820510224D+02
 Normal termination of Gaussian 16 at Fri Aug 30 22:37:17 2019.

 -----------------------------------------------------------
 #P Geom=AllCheck Guess=TCheck SCRF=Check MP2=Full/GTLargeXP
 -----------------------------------------------------------

 Structure from the checkpoint file:  "/scratch/westgroup/GAUSS_SCRDIR/Gau-12159.chk"
 ------------------------------
 Gaussian input prepared by ASE
 ------------------------------
 Charge =  0 Multiplicity = 1

 SCF Done:  E(RHF) =  -79.2575864388     A.U. after    8 cycles
 E2 =    -0.4502084746D+00 EUMP2 =    -0.79707794913379D+02
 Normal termination of Gaussian 16 at Fri Aug 30 22:37:22 2019.
 SCF Done:  E(RHF) =  -79.2644932677     A.U. after    7 cycles
 Normal termination of Gaussian 16 at Fri Aug 30 22:37:30 2019.

                         Standard orientation:
 ---------------------------------------------------------------------
 Center     Atomic      Atomic             Coordinates (Angstroms)
 Number     Number       Type             X           Y           Z
 ---------------------------------------------------------------------
      1          6           0        0.765053   -0.000000   -0.000000
      2          6           0       -0.765052    0.000000    0.000000
      3          1           0        1.163912    0.825536   -0.598429
      4          1           0        1.163910    0.105490    1.014150
      5          1           0        1.163916   -0.931024   -0.415716
      6          1           0       -1.163916    0.931025    0.415713
      7          1           0       -1.163913   -0.825534    0.598432
      8          1           0       -1.163910   -0.105495   -1.014150
 ---------------------------------------------------------------------

 SCF Done:  E(RHF) =  -79.2660127109     A.U. after    7 cycles

 The electronic state is 1-A.
 Alpha  occ. eigenvalues --  -11.21222 -11.21162  -1.01538  -0.84038  -0.59479
 Alpha  occ. eigenvalues --   -0.59479  -0.50964  -0.48595  -0.48595
 Alpha virt. eigenvalues --    0.04456   0.05277   0.05934   0.05934   0.08283
 Alpha virt. eigenvalues --    0.08283   0.08800   0.14731   0.17815   0.17816
 Alpha virt. eigenvalues --    0.20770   0.20770   0.23199   0.25092   0.28291

 Mulliken charges:
               1
     1  C   -0.475465
     2  C   -0.475465
     3  H    0.158488
     4  H    0.158488
     5  H    0.158488
     6  H    0.158488
     7  H    0.158488
     8  H    0.158488
 Sum of Mulliken charges =  -0.00000

 Dipole moment (field-independent basis, Debye):
    X=              0.0000    Y=             -0.0000    Z=              0.0000  Tot=              0.0000
 Quadrupole moment (field-independent basis, Debye-Ang):
   XX=            -15.6755   YY=            -14.9498   ZZ=            -14.9498
   XY=             -0.0000   XZ=             -0.0000   YZ=              0.0000

 Normal termination of Gaussian 16 at Fri Aug 30 22:38:14 2019.
