 Q-Chem 5.1, Q-Chem, Inc., Pleasanton, CA (2018)
 Q-Chem 5.1.0 for Intel X86 EM64T Linux

User input:
--------------------------------------------------------------
$molecule
0 1
C  -0.1767537504  -1.6084990375  -0.2613563693
C  -1.2832114783  -0.9778292468   0.2929885819
C  -0.6869348897   1.1545458375   0.9264125699
C  -0.0835934881   1.6147511886  -0.2337573792
C   1.0353237536   0.9697420387  -0.8076459792
C   1.6028914697  -0.1644963968  -0.2463787648
H  -0.0907465044  -1.7109610357  -1.3406544056
H   0.3901504016  -2.3308230958   0.3255462865
H  -1.5858368345  -1.2031225281   1.3151888147
H  -2.0638493137  -0.5788036147  -0.3506992999
H  -0.1072410231   0.6447835352   1.6922021934
H  -1.6227883716   1.5942813266   1.2721736630
H  -0.6139415056   2.3521914164  -0.8406309888
H   1.3091772166   1.2399807501  -1.8299910724
H   1.5870538198  -0.3191772622   0.8300362099
H   2.3823204980  -0.7100128756  -0.7789120600
$end

$rem
JOBTYPE                   FREQ
METHOD                    wB97X-D3
BASIS                     def2-TZVP
UNRESTRICTED              TRUE
SCF_ALGORITHM             DIIS
MAX_SCF_CYCLES            100
SCF_CONVERGENCE           8
SYM_IGNORE                TRUE
SYMMETRY                  FALSE
WAVEFUNCTION_ANALYSIS     FALSE
$end

--------------------------------------------------------------

   13    -234.5485497470      4.04e-09  Convergence criterion met
 Total energy in the final basis set =     -234.5485497470
 Frequency:      -566.56                 204.82                 235.78
 Force Cnst:      1.6241                 0.0672                 0.0964
 Red. Mass:       8.5878                 2.7195                 2.9424
 IR Intens:        8.426                  1.923                  0.802
 Frequency:       307.99                 381.22                 420.93
 Force Cnst:      0.1598                 0.2219                 0.2848
 Red. Mass:       2.8596                 2.5915                 2.7282
 IR Intens:        0.628                  0.107                  3.498
 Frequency:       501.11                 604.61                 629.14
 Force Cnst:      0.3498                 0.4364                 0.2507
 Red. Mass:       2.3643                 2.0262                 1.0749
 IR Intens:        0.007                  0.227                  1.863
 Frequency:       714.30                 802.42                 812.36
 Force Cnst:      0.3603                 0.5597                 0.4495
 Red. Mass:       1.1986                 1.4755                 1.1561
 IR Intens:       34.099                  0.793                  0.919
 Frequency:       867.51                 956.19                 959.59
 Force Cnst:      0.4581                 0.8497                 0.6494
 Red. Mass:       1.0331                 1.5773                 1.1970
 IR Intens:        0.279                 15.773                  8.455
 Frequency:       998.42                1016.67                1027.12
 Force Cnst:      0.6965                 0.7419                 0.7546
 Red. Mass:       1.1859                 1.2182                 1.2140
 IR Intens:       16.475                  1.128                  0.544
 Frequency:      1034.89                1037.36                1101.45
 Force Cnst:      0.7506                 0.7325                 1.1563
 Red. Mass:       1.1896                 1.1554                 1.6176
 IR Intens:       33.006                 23.624                  2.151
 Frequency:      1113.51                1232.20                1254.34
 Force Cnst:      1.1156                 1.6427                 1.3190
 Red. Mass:       1.5271                 1.8363                 1.4229
 IR Intens:        0.842                  0.067                  0.071
 Frequency:      1271.36                1305.67                1443.46
 Force Cnst:      1.4615                 1.5234                 1.4776
 Red. Mass:       1.5347                 1.5167                 1.2036
 IR Intens:        0.206                  2.329                  2.326
 Frequency:      1478.31                1494.13                1543.48
 Force Cnst:      1.4285                 2.1186                 1.9590
 Red. Mass:       1.1094                 1.6107                 1.3957
 IR Intens:        2.880                  9.108                  3.032
 Frequency:      1584.72                1592.33                3106.93
 Force Cnst:      3.2408                 3.3008                 6.0508
 Red. Mass:       2.1903                 2.2095                 1.0639
 IR Intens:        2.744                  0.363                  5.837
 Frequency:      3108.88                3114.86                3121.09
 Force Cnst:      6.0709                 6.0631                 6.1168
 Red. Mass:       1.0661                 1.0606                 1.0658
 IR Intens:        1.082                 12.151                 13.538
 Frequency:      3122.24                3132.55                3189.93
 Force Cnst:      6.1071                 6.3052                 6.6895
 Red. Mass:       1.0633                 1.0906                 1.1158
 IR Intens:        2.598                  8.313                  0.151
 Frequency:      3199.76                3202.82                3212.94
 Force Cnst:      6.7304                 6.7405                 6.7964
 Red. Mass:       1.1157                 1.1153                 1.1174
 IR Intens:        3.198                  9.660                 10.359
 Total job time:  2968.72s(wall), 10666.13s(cpu)
        *  Thank you very much for using Q-Chem.  Have a nice day.  *
 Q-Chem 5.1, Q-Chem, Inc., Pleasanton, CA (2018)
 Q-Chem 5.1.0 for Intel X86 EM64T Linux

User input:
--------------------------------------------------------------

$molecule
read
$end

$rem
JOBTYPE                   TS
METHOD                    wB97X-D3
BASIS                     def2-TZVP
UNRESTRICTED              TRUE
SCF_GUESS                 READ
GEOM_OPT_HESSIAN          READ
SCF_ALGORITHM             DIIS
MAX_SCF_CYCLES            100
SCF_CONVERGENCE           8
SYM_IGNORE                TRUE
SYMMETRY                  FALSE
GEOM_OPT_MAX_CYCLES       100
GEOM_OPT_TOL_GRADIENT     100
GEOM_OPT_TOL_DISPLACEMENT 400
GEOM_OPT_TOL_ENERGY       33
WAVEFUNCTION_ANALYSIS     FALSE
$end

--------------------------------------------------------------

    2    -234.5485497471      1.80e-09  Convergence criterion met
 Total energy in the final basis set =     -234.5485497471
   11    -234.5494154485      4.36e-09  Convergence criterion met
 Total energy in the final basis set =     -234.5494154485
    9    -234.5494299082      5.60e-09  Convergence criterion met
 Total energy in the final basis set =     -234.5494299082
    8    -234.5494300370      4.07e-09  Convergence criterion met
 Total energy in the final basis set =     -234.5494300370
 Final energy is   -234.549430037011
 **  OPTIMIZATION CONVERGED  **
        *  Thank you very much for using Q-Chem.  Have a nice day.  *
 Q-Chem 5.1, Q-Chem, Inc., Pleasanton, CA (2018)
 Q-Chem 5.1.0 for Intel X86 EM64T Linux

User input:
--------------------------------------------------------------

$molecule
read
$end

$rem
JOBTYPE                   FREQ
METHOD                    wB97X-D3
BASIS                     def2-TZVP
UNRESTRICTED              TRUE
SCF_GUESS                 READ
SCF_ALGORITHM             DIIS
MAX_SCF_CYCLES            100
SCF_CONVERGENCE           8
SYM_IGNORE                TRUE
SYMMETRY                  FALSE
WAVEFUNCTION_ANALYSIS     FALSE
$end
--------------------------------------------------------------

             Standard Nuclear Orientation (Angstroms)
    I     Atom           X                Y                Z
 ----------------------------------------------------------------
    1      C      -0.1662432835    -1.5737323502    -0.2594576039
    2      C      -1.2602229528    -0.9454320972     0.2931077466
    3      C      -0.6815561490     1.1185873241     0.9056126523
    4      C      -0.0867101688     1.5942902688    -0.2365601087
    5      C       1.0232771187     0.9580626030    -0.8034534382
    6      C       1.5693979350    -0.1701567889    -0.2428330848
    7      H      -0.0975172543    -1.6985285261    -1.3310542969
    8      H       0.3924708568    -2.2928736044     0.3264678258
    9      H      -1.5563193616    -1.1777150571     1.3085326011
   10      H      -2.0504802334    -0.5760880782    -0.3454096752
   11      H      -0.0960997919     0.6260531789     1.6693125689
   12      H      -1.6073811352     1.5585542823     1.2576563681
   13      H      -0.6108979096     2.3368838953    -0.8292944448
   14      H       1.3129498119     1.2339284384    -1.8122770939
   15      H       1.5553467567    -0.3163039092     0.8283671068
   16      H       2.3520057607    -0.7089785796    -0.7641951232
 ----------------------------------------------------------------

    2    -234.5494300369      5.27e-10  Convergence criterion met
 Total energy in the final basis set =     -234.5494300369
 Frequency:      -647.47                 140.85                 223.16
 Force Cnst:      1.9220                 0.0242                 0.1246
 Red. Mass:       7.7813                 2.0665                 4.2483
 IR Intens:        9.003                  0.816                  2.428
 Frequency:       288.71                 380.48                 417.59
 Force Cnst:      0.1330                 0.2090                 0.2821
 Red. Mass:       2.7087                 2.4503                 2.7457
 IR Intens:        0.308                  0.320                  3.346
 Frequency:       498.80                 593.72                 629.65
 Force Cnst:      0.3619                 0.4039                 0.2559
 Red. Mass:       2.4685                 1.9447                 1.0954
 IR Intens:        0.038                  0.027                  1.272
 Frequency:       700.54                 796.41                 808.45
 Force Cnst:      0.3566                 0.5603                 0.4487
 Red. Mass:       1.2334                 1.4992                 1.1653
 IR Intens:       35.612                  1.482                  0.329
 Frequency:       855.66                 945.05                 953.74
 Force Cnst:      0.4436                 0.6184                 0.7297
 Red. Mass:       1.0284                 1.1751                 1.3615
 IR Intens:        0.195                 10.505                 25.484
 Frequency:       986.72                 998.17                1018.27
 Force Cnst:      0.7050                 0.6735                 0.7796
 Red. Mass:       1.2289                 1.1473                 1.2761
 IR Intens:        3.268                  0.338                  6.693
 Frequency:      1018.88                1029.05                1112.83
 Force Cnst:      0.7226                 0.7482                 1.1730
 Red. Mass:       1.1814                 1.1991                 1.6076
 IR Intens:        5.509                 39.566                  1.592
 Frequency:      1118.25                1251.77                1257.37
 Force Cnst:      1.1753                 1.2927                 1.5632
 Red. Mass:       1.5953                 1.4002                 1.6782
 IR Intens:        1.564                  0.067                  0.042
 Frequency:      1281.12                1325.18                1441.38
 Force Cnst:      1.3739                 1.5159                 1.4476
 Red. Mass:       1.4207                 1.4651                 1.1826
 IR Intens:        0.650                  2.305                  2.109
 Frequency:      1474.37                1505.33                1552.88
 Force Cnst:      1.4179                 1.9646                 2.1612
 Red. Mass:       1.1071                 1.4715                 1.5211
 IR Intens:        2.853                  9.727                  1.791
 Frequency:      1616.81                1621.21                3166.65
 Force Cnst:      4.7321                 4.2411                 6.2224
 Red. Mass:       3.0725                 2.7387                 1.0532
 IR Intens:        2.112                  0.844                  4.105
 Frequency:      3171.36                3172.89                3181.29
 Force Cnst:      6.3037                 6.3029                 6.4235
 Red. Mass:       1.0638                 1.0626                 1.0773
 IR Intens:        5.833                  8.731                 16.127
 Frequency:      3182.97                3197.15                3249.15
 Force Cnst:      6.3552                 6.5852                 6.9353
 Red. Mass:       1.0647                 1.0934                 1.1150
 IR Intens:        3.199                 10.473                  0.432
 Frequency:      3256.13                3259.92                3272.89
 Force Cnst:      6.9643                 6.9796                 7.0507
 Red. Mass:       1.1149                 1.1147                 1.1172
 IR Intens:        4.298                  9.675                 10.652

 STANDARD THERMODYNAMIC QUANTITIES AT   298.15 K  AND     1.00 ATM

   This Molecule has  1 Imaginary Frequencies
   Zero point vibrational energy:       88.566 kcal/mol

   Atom    1 Element C  Has Mass   12.00000
   Atom    2 Element C  Has Mass   12.00000
   Atom    3 Element C  Has Mass   12.00000
   Atom    4 Element C  Has Mass   12.00000
   Atom    5 Element C  Has Mass   12.00000
   Atom    6 Element C  Has Mass   12.00000
   Atom    7 Element H  Has Mass    1.00783
   Atom    8 Element H  Has Mass    1.00783
   Atom    9 Element H  Has Mass    1.00783
   Atom   10 Element H  Has Mass    1.00783
   Atom   11 Element H  Has Mass    1.00783
   Atom   12 Element H  Has Mass    1.00783
   Atom   13 Element H  Has Mass    1.00783
   Atom   14 Element H  Has Mass    1.00783
   Atom   15 Element H  Has Mass    1.00783
   Atom   16 Element H  Has Mass    1.00783
   Molecular Mass:    82.078300 amu
   Principal axes and moments of inertia in amu*Bohr^2:
                             1           2           3
    Eigenvalues --      409.08409   506.17994   776.85799
          X               0.43588     0.79230     0.42693
          Y               0.88732    -0.45766    -0.05658
          Z              -0.15056    -0.40349     0.90251
   Rotational Symmetry Number is   1
   The Molecule is an Asymmetric Top
   Translational Enthalpy:        0.889 kcal/mol
   Rotational Enthalpy:           0.889 kcal/mol
   Vibrational Enthalpy:         90.759 kcal/mol
   gas constant (RT):             0.592 kcal/mol
   Translational Entropy:        39.129  cal/mol.K
   Rotational Entropy:           26.578  cal/mol.K
   Vibrational Entropy:          11.530  cal/mol.K

   Total Enthalpy:               93.129 kcal/mol
   Total Entropy:                77.237  cal/mol.K

 Total job time:  2892.75s(wall), 10491.00s(cpu)
        *  Thank you very much for using Q-Chem.  Have a nice day.  *
